V -t * -v 1.0a5 -a 0
A -t * -n 1 -p 0 -o 0x7fffffff -c 30 -a 1
A -t * -h 1 -m 1073741823 -s 0
c -t * -i 1 -n Blue
c -t * -i 2 -n Red
n -t * -a 4 -s 4 -S UP -v circle -c black -i black
n -t * -a 0 -s 0 -S UP -v circle -c black -i black
n -t * -a 5 -s 5 -S UP -v square -c black -i black
n -t * -a 1 -s 1 -S UP -v circle -c black -i black
n -t * -a 2 -s 2 -S UP -v hexagon -c black -i black
n -t * -a 3 -s 3 -S UP -v square -c black -i black
l -t * -s 0 -d 2 -S UP -r 200000 -D 0.10000000000000001 -c black -o right-down
l -t * -s 1 -d 2 -S UP -r 500000 -D 0.10000000000000001 -c black -o right-up
l -t * -s 2 -d 3 -S UP -r 200000 -D 0.10000000000000001 -c black -o right
l -t * -s 3 -d 4 -S UP -r 200000 -D 0.10000000000000001 -c black -o right-up
l -t * -s 3 -d 5 -S UP -r 200000 -D 0.10000000000000001 -c black -o right-down
l -t * -s 5 -d 4 -S UP -r 200000 -D 0.10000000000000001 -c black -o up
q -t * -s 0 -d 2 -a 0.5
q -t * -s 2 -d 0 -a 0.5
q -t * -s 1 -d 2 -a 0.5
q -t * -s 2 -d 1 -a 0.5
q -t * -s 2 -d 3 -a 0.5
q -t * -s 3 -d 2 -a 0.5
n -t 0 -s 2 -S DLABEL -l "server" -L ""
n -t 0 -s 3 -S DLABEL -l "router" -L ""
n -t 0 -s 5 -S DLABEL -l "router" -L ""
n -t 0 -s 0 -S DLABEL -l "client" -L ""
n -t 0 -s 1 -S DLABEL -l "client" -L ""
n -t 0 -s 4 -S DLABEL -l "client" -L ""
+ -t 0.000169788487334637 -s 0 -d 2 -p rtProtoDV -e 6 -c 0 -i 2 -a 0 -x {0.2 2.1 -1 ------- null}
- -t 0.000169788487334637 -s 0 -d 2 -p rtProtoDV -e 6 -c 0 -i 2 -a 0 -x {0.2 2.1 -1 ------- null}
h -t 0.000169788487334637 -s 0 -d 2 -p rtProtoDV -e 6 -c 0 -i 2 -a 0 -x {0.2 2.1 -1 ------- null}
+ -t 0.00710233021858257 -s 2 -d 0 -p rtProtoDV -e 6 -c 0 -i 3 -a 0 -x {2.1 0.2 -1 ------- null}
- -t 0.00710233021858257 -s 2 -d 0 -p rtProtoDV -e 6 -c 0 -i 3 -a 0 -x {2.1 0.2 -1 ------- null}
h -t 0.00710233021858257 -s 2 -d 0 -p rtProtoDV -e 6 -c 0 -i 3 -a 0 -x {2.1 0.2 -1 ------- null}
+ -t 0.00710233021858257 -s 2 -d 1 -p rtProtoDV -e 6 -c 0 -i 4 -a 0 -x {2.1 1.2 -1 ------- null}
- -t 0.00710233021858257 -s 2 -d 1 -p rtProtoDV -e 6 -c 0 -i 4 -a 0 -x {2.1 1.2 -1 ------- null}
h -t 0.00710233021858257 -s 2 -d 1 -p rtProtoDV -e 6 -c 0 -i 4 -a 0 -x {2.1 1.2 -1 ------- null}
+ -t 0.00710233021858257 -s 2 -d 3 -p rtProtoDV -e 6 -c 0 -i 5 -a 0 -x {2.1 3.1 -1 ------- null}
- -t 0.00710233021858257 -s 2 -d 3 -p rtProtoDV -e 6 -c 0 -i 5 -a 0 -x {2.1 3.1 -1 ------- null}
h -t 0.00710233021858257 -s 2 -d 3 -p rtProtoDV -e 6 -c 0 -i 5 -a 0 -x {2.1 3.1 -1 ------- null}
+ -t 0.04406133552271 -s 3 -d 2 -p rtProtoDV -e 6 -c 0 -i 6 -a 0 -x {3.1 2.1 -1 ------- null}
- -t 0.04406133552271 -s 3 -d 2 -p rtProtoDV -e 6 -c 0 -i 6 -a 0 -x {3.1 2.1 -1 ------- null}
h -t 0.04406133552271 -s 3 -d 2 -p rtProtoDV -e 6 -c 0 -i 6 -a 0 -x {3.1 2.1 -1 ------- null}
+ -t 0.04406133552271 -s 3 -d 4 -p rtProtoDV -e 6 -c 0 -i 7 -a 0 -x {3.1 4.3 -1 ------- null}
- -t 0.04406133552271 -s 3 -d 4 -p rtProtoDV -e 6 -c 0 -i 7 -a 0 -x {3.1 4.3 -1 ------- null}
h -t 0.04406133552271 -s 3 -d 4 -p rtProtoDV -e 6 -c 0 -i 7 -a 0 -x {3.1 4.3 -1 ------- null}
+ -t 0.04406133552271 -s 3 -d 5 -p rtProtoDV -e 6 -c 0 -i 8 -a 0 -x {3.1 5.1 -1 ------- null}
- -t 0.04406133552271 -s 3 -d 5 -p rtProtoDV -e 6 -c 0 -i 8 -a 0 -x {3.1 5.1 -1 ------- null}
h -t 0.04406133552271 -s 3 -d 5 -p rtProtoDV -e 6 -c 0 -i 8 -a 0 -x {3.1 5.1 -1 ------- null}
r -t 0.100409788487335 -s 0 -d 2 -p rtProtoDV -e 6 -c 0 -i 2 -a 0 -x {0.2 2.1 -1 ------- null}
r -t 0.107198330218583 -s 2 -d 1 -p rtProtoDV -e 6 -c 0 -i 4 -a 0 -x {2.1 1.2 -1 ------- null}
+ -t 0.107198330218583 -s 1 -d 2 -p rtProtoDV -e 6 -c 0 -i 10 -a 0 -x {1.2 2.1 -1 ------- null}
- -t 0.107198330218583 -s 1 -d 2 -p rtProtoDV -e 6 -c 0 -i 10 -a 0 -x {1.2 2.1 -1 ------- null}
h -t 0.107198330218583 -s 1 -d 2 -p rtProtoDV -e 6 -c 0 -i 10 -a 0 -x {1.2 2.1 -1 ------- null}
r -t 0.107342330218583 -s 2 -d 0 -p rtProtoDV -e 6 -c 0 -i 3 -a 0 -x {2.1 0.2 -1 ------- null}
+ -t 0.107342330218583 -s 0 -d 2 -p rtProtoDV -e 6 -c 0 -i 11 -a 0 -x {0.2 2.1 -1 ------- null}
- -t 0.107342330218583 -s 0 -d 2 -p rtProtoDV -e 6 -c 0 -i 11 -a 0 -x {0.2 2.1 -1 ------- null}
h -t 0.107342330218583 -s 0 -d 2 -p rtProtoDV -e 6 -c 0 -i 11 -a 0 -x {0.2 2.1 -1 ------- null}
r -t 0.107342330218583 -s 2 -d 3 -p rtProtoDV -e 6 -c 0 -i 5 -a 0 -x {2.1 3.1 -1 ------- null}
+ -t 0.107342330218583 -s 3 -d 2 -p rtProtoDV -e 6 -c 0 -i 12 -a 0 -x {3.1 2.1 -1 ------- null}
- -t 0.107342330218583 -s 3 -d 2 -p rtProtoDV -e 6 -c 0 -i 12 -a 0 -x {3.1 2.1 -1 ------- null}
h -t 0.107342330218583 -s 3 -d 2 -p rtProtoDV -e 6 -c 0 -i 12 -a 0 -x {3.1 2.1 -1 ------- null}
+ -t 0.107342330218583 -s 3 -d 4 -p rtProtoDV -e 6 -c 0 -i 13 -a 0 -x {3.1 4.3 -1 ------- null}
- -t 0.107342330218583 -s 3 -d 4 -p rtProtoDV -e 6 -c 0 -i 13 -a 0 -x {3.1 4.3 -1 ------- null}
h -t 0.107342330218583 -s 3 -d 4 -p rtProtoDV -e 6 -c 0 -i 13 -a 0 -x {3.1 4.3 -1 ------- null}
+ -t 0.107342330218583 -s 3 -d 5 -p rtProtoDV -e 6 -c 0 -i 14 -a 0 -x {3.1 5.1 -1 ------- null}
- -t 0.107342330218583 -s 3 -d 5 -p rtProtoDV -e 6 -c 0 -i 14 -a 0 -x {3.1 5.1 -1 ------- null}
h -t 0.107342330218583 -s 3 -d 5 -p rtProtoDV -e 6 -c 0 -i 14 -a 0 -x {3.1 5.1 -1 ------- null}
r -t 0.14430133552271 -s 3 -d 2 -p rtProtoDV -e 6 -c 0 -i 6 -a 0 -x {3.1 2.1 -1 ------- null}
+ -t 0.14430133552271 -s 2 -d 0 -p rtProtoDV -e 6 -c 0 -i 16 -a 0 -x {2.1 0.2 -1 ------- null}
- -t 0.14430133552271 -s 2 -d 0 -p rtProtoDV -e 6 -c 0 -i 16 -a 0 -x {2.1 0.2 -1 ------- null}
h -t 0.14430133552271 -s 2 -d 0 -p rtProtoDV -e 6 -c 0 -i 16 -a 0 -x {2.1 0.2 -1 ------- null}
+ -t 0.14430133552271 -s 2 -d 1 -p rtProtoDV -e 6 -c 0 -i 17 -a 0 -x {2.1 1.2 -1 ------- null}
- -t 0.14430133552271 -s 2 -d 1 -p rtProtoDV -e 6 -c 0 -i 17 -a 0 -x {2.1 1.2 -1 ------- null}
h -t 0.14430133552271 -s 2 -d 1 -p rtProtoDV -e 6 -c 0 -i 17 -a 0 -x {2.1 1.2 -1 ------- null}
+ -t 0.14430133552271 -s 2 -d 3 -p rtProtoDV -e 6 -c 0 -i 18 -a 0 -x {2.1 3.1 -1 ------- null}
- -t 0.14430133552271 -s 2 -d 3 -p rtProtoDV -e 6 -c 0 -i 18 -a 0 -x {2.1 3.1 -1 ------- null}
h -t 0.14430133552271 -s 2 -d 3 -p rtProtoDV -e 6 -c 0 -i 18 -a 0 -x {2.1 3.1 -1 ------- null}
r -t 0.14430133552271 -s 3 -d 4 -p rtProtoDV -e 6 -c 0 -i 7 -a 0 -x {3.1 4.3 -1 ------- null}
+ -t 0.14430133552271 -s 4 -d 3 -p rtProtoDV -e 6 -c 0 -i 19 -a 0 -x {4.3 3.1 -1 ------- null}
- -t 0.14430133552271 -s 4 -d 3 -p rtProtoDV -e 6 -c 0 -i 19 -a 0 -x {4.3 3.1 -1 ------- null}
h -t 0.14430133552271 -s 4 -d 3 -p rtProtoDV -e 6 -c 0 -i 19 -a 0 -x {4.3 3.1 -1 ------- null}
+ -t 0.14430133552271 -s 4 -d 5 -p rtProtoDV -e 6 -c 0 -i 20 -a 0 -x {4.3 5.1 -1 ------- null}
- -t 0.14430133552271 -s 4 -d 5 -p rtProtoDV -e 6 -c 0 -i 20 -a 0 -x {4.3 5.1 -1 ------- null}
h -t 0.14430133552271 -s 4 -d 5 -p rtProtoDV -e 6 -c 0 -i 20 -a 0 -x {4.3 5.1 -1 ------- null}
r -t 0.14430133552271 -s 3 -d 5 -p rtProtoDV -e 6 -c 0 -i 8 -a 0 -x {3.1 5.1 -1 ------- null}
+ -t 0.14430133552271 -s 5 -d 3 -p rtProtoDV -e 6 -c 0 -i 21 -a 0 -x {5.1 3.1 -1 ------- null}
- -t 0.14430133552271 -s 5 -d 3 -p rtProtoDV -e 6 -c 0 -i 21 -a 0 -x {5.1 3.1 -1 ------- null}
h -t 0.14430133552271 -s 5 -d 3 -p rtProtoDV -e 6 -c 0 -i 21 -a 0 -x {5.1 3.1 -1 ------- null}
+ -t 0.14430133552271 -s 5 -d 4 -p rtProtoDV -e 6 -c 0 -i 22 -a 0 -x {5.1 4.3 -1 ------- null}
- -t 0.14430133552271 -s 5 -d 4 -p rtProtoDV -e 6 -c 0 -i 22 -a 0 -x {5.1 4.3 -1 ------- null}
h -t 0.14430133552271 -s 5 -d 4 -p rtProtoDV -e 6 -c 0 -i 22 -a 0 -x {5.1 4.3 -1 ------- null}
r -t 0.207294330218583 -s 1 -d 2 -p rtProtoDV -e 6 -c 0 -i 10 -a 0 -x {1.2 2.1 -1 ------- null}
r -t 0.207582330218583 -s 0 -d 2 -p rtProtoDV -e 6 -c 0 -i 11 -a 0 -x {0.2 2.1 -1 ------- null}
r -t 0.207582330218583 -s 3 -d 2 -p rtProtoDV -e 6 -c 0 -i 12 -a 0 -x {3.1 2.1 -1 ------- null}
r -t 0.207582330218583 -s 3 -d 4 -p rtProtoDV -e 6 -c 0 -i 13 -a 0 -x {3.1 4.3 -1 ------- null}
+ -t 0.207582330218583 -s 4 -d 3 -p rtProtoDV -e 6 -c 0 -i 30 -a 0 -x {4.3 3.1 -1 ------- null}
- -t 0.207582330218583 -s 4 -d 3 -p rtProtoDV -e 6 -c 0 -i 30 -a 0 -x {4.3 3.1 -1 ------- null}
h -t 0.207582330218583 -s 4 -d 3 -p rtProtoDV -e 6 -c 0 -i 30 -a 0 -x {4.3 3.1 -1 ------- null}
+ -t 0.207582330218583 -s 4 -d 5 -p rtProtoDV -e 6 -c 0 -i 31 -a 0 -x {4.3 5.1 -1 ------- null}
- -t 0.207582330218583 -s 4 -d 5 -p rtProtoDV -e 6 -c 0 -i 31 -a 0 -x {4.3 5.1 -1 ------- null}
h -t 0.207582330218583 -s 4 -d 5 -p rtProtoDV -e 6 -c 0 -i 31 -a 0 -x {4.3 5.1 -1 ------- null}
r -t 0.207582330218583 -s 3 -d 5 -p rtProtoDV -e 6 -c 0 -i 14 -a 0 -x {3.1 5.1 -1 ------- null}
+ -t 0.207582330218583 -s 5 -d 3 -p rtProtoDV -e 6 -c 0 -i 32 -a 0 -x {5.1 3.1 -1 ------- null}
- -t 0.207582330218583 -s 5 -d 3 -p rtProtoDV -e 6 -c 0 -i 32 -a 0 -x {5.1 3.1 -1 ------- null}
h -t 0.207582330218583 -s 5 -d 3 -p rtProtoDV -e 6 -c 0 -i 32 -a 0 -x {5.1 3.1 -1 ------- null}
+ -t 0.207582330218583 -s 5 -d 4 -p rtProtoDV -e 6 -c 0 -i 33 -a 0 -x {5.1 4.3 -1 ------- null}
- -t 0.207582330218583 -s 5 -d 4 -p rtProtoDV -e 6 -c 0 -i 33 -a 0 -x {5.1 4.3 -1 ------- null}
h -t 0.207582330218583 -s 5 -d 4 -p rtProtoDV -e 6 -c 0 -i 33 -a 0 -x {5.1 4.3 -1 ------- null}
+ -t 0.22058669092161 -s 4 -d 3 -p rtProtoDV -e 6 -c 0 -i 34 -a 0 -x {4.3 3.1 -1 ------- null}
- -t 0.22058669092161 -s 4 -d 3 -p rtProtoDV -e 6 -c 0 -i 34 -a 0 -x {4.3 3.1 -1 ------- null}
h -t 0.22058669092161 -s 4 -d 3 -p rtProtoDV -e 6 -c 0 -i 34 -a 0 -x {4.3 3.1 -1 ------- null}
+ -t 0.22058669092161 -s 4 -d 5 -p rtProtoDV -e 6 -c 0 -i 35 -a 0 -x {4.3 5.1 -1 ------- null}
- -t 0.22058669092161 -s 4 -d 5 -p rtProtoDV -e 6 -c 0 -i 35 -a 0 -x {4.3 5.1 -1 ------- null}
h -t 0.22058669092161 -s 4 -d 5 -p rtProtoDV -e 6 -c 0 -i 35 -a 0 -x {4.3 5.1 -1 ------- null}
r -t 0.24439733552271 -s 2 -d 1 -p rtProtoDV -e 6 -c 0 -i 17 -a 0 -x {2.1 1.2 -1 ------- null}
+ -t 0.24439733552271 -s 1 -d 2 -p rtProtoDV -e 6 -c 0 -i 41 -a 0 -x {1.2 2.1 -1 ------- null}
- -t 0.24439733552271 -s 1 -d 2 -p rtProtoDV -e 6 -c 0 -i 41 -a 0 -x {1.2 2.1 -1 ------- null}
h -t 0.24439733552271 -s 1 -d 2 -p rtProtoDV -e 6 -c 0 -i 41 -a 0 -x {1.2 2.1 -1 ------- null}
r -t 0.24454133552271 -s 2 -d 0 -p rtProtoDV -e 6 -c 0 -i 16 -a 0 -x {2.1 0.2 -1 ------- null}
+ -t 0.24454133552271 -s 0 -d 2 -p rtProtoDV -e 6 -c 0 -i 42 -a 0 -x {0.2 2.1 -1 ------- null}
- -t 0.24454133552271 -s 0 -d 2 -p rtProtoDV -e 6 -c 0 -i 42 -a 0 -x {0.2 2.1 -1 ------- null}
h -t 0.24454133552271 -s 0 -d 2 -p rtProtoDV -e 6 -c 0 -i 42 -a 0 -x {0.2 2.1 -1 ------- null}
r -t 0.24454133552271 -s 2 -d 3 -p rtProtoDV -e 6 -c 0 -i 18 -a 0 -x {2.1 3.1 -1 ------- null}
r -t 0.24454133552271 -s 4 -d 3 -p rtProtoDV -e 6 -c 0 -i 19 -a 0 -x {4.3 3.1 -1 ------- null}
r -t 0.24454133552271 -s 4 -d 5 -p rtProtoDV -e 6 -c 0 -i 20 -a 0 -x {4.3 5.1 -1 ------- null}
r -t 0.24454133552271 -s 5 -d 3 -p rtProtoDV -e 6 -c 0 -i 21 -a 0 -x {5.1 3.1 -1 ------- null}
r -t 0.24454133552271 -s 5 -d 4 -p rtProtoDV -e 6 -c 0 -i 22 -a 0 -x {5.1 4.3 -1 ------- null}
+ -t 0.245800192 -s 1 -d 2 -p udp -e 512 -c 2 -i 43 -a 2 -x {1.0 4.1 9 ------- null}
- -t 0.245800192 -s 1 -d 2 -p udp -e 512 -c 2 -i 43 -a 2 -x {1.0 4.1 9 ------- null}
h -t 0.245800192 -s 1 -d 2 -p udp -e 512 -c 2 -i 43 -a 2 -x {1.0 4.1 -1 ------- null}
+ -t 0.266868702 -s 1 -d 2 -p udp -e 512 -c 2 -i 44 -a 2 -x {1.0 4.1 10 ------- null}
- -t 0.266868702 -s 1 -d 2 -p udp -e 512 -c 2 -i 44 -a 2 -x {1.0 4.1 10 ------- null}
h -t 0.266868702 -s 1 -d 2 -p udp -e 512 -c 2 -i 44 -a 2 -x {1.0 4.1 -1 ------- null}
+ -t 0.274355937 -s 0 -d 2 -p udp -e 328 -c 1 -i 45 -a 1 -x {0.0 4.0 7 ------- null}
- -t 0.274355937 -s 0 -d 2 -p udp -e 328 -c 1 -i 45 -a 1 -x {0.0 4.0 7 ------- null}
h -t 0.274355937 -s 0 -d 2 -p udp -e 328 -c 1 -i 45 -a 1 -x {0.0 4.0 -1 ------- null}
+ -t 0.277940357931862 -s 1 -d 2 -p rtProtoDV -e 6 -c 0 -i 46 -a 0 -x {1.2 2.1 -1 ------- null}
- -t 0.277940357931862 -s 1 -d 2 -p rtProtoDV -e 6 -c 0 -i 46 -a 0 -x {1.2 2.1 -1 ------- null}
h -t 0.277940357931862 -s 1 -d 2 -p rtProtoDV -e 6 -c 0 -i 46 -a 0 -x {1.2 2.1 -1 ------- null}
+ -t 0.292252117 -s 0 -d 2 -p udp -e 184 -c 1 -i 47 -a 1 -x {0.0 4.0 8 ------- null}
- -t 0.292252117 -s 0 -d 2 -p udp -e 184 -c 1 -i 47 -a 1 -x {0.0 4.0 8 ------- null}
h -t 0.292252117 -s 0 -d 2 -p udp -e 184 -c 1 -i 47 -a 1 -x {0.0 4.0 -1 ------- null}
+ -t 0.293957802 -s 1 -d 2 -p udp -e 512 -c 2 -i 48 -a 2 -x {1.0 4.1 11 ------- null}
- -t 0.293957802 -s 1 -d 2 -p udp -e 512 -c 2 -i 48 -a 2 -x {1.0 4.1 11 ------- null}
h -t 0.293957802 -s 1 -d 2 -p udp -e 512 -c 2 -i 48 -a 2 -x {1.0 4.1 -1 ------- null}
+ -t 0.296926241 -s 1 -d 2 -p udp -e 512 -c 2 -i 49 -a 2 -x {1.0 4.1 12 ------- null}
d -t 0.3 -s 5 -d 4 -p rtProtoDV -e 6 -c 0 -i 33 -a 0 -x {5.1 4.3 -1 ------- null}
l -t 0.29999999999999999 -s 5 -d 4 -S DOWN
v -t 0.29999999999999999 link-down 0.29999999999999999 5 4
l -t 0.29999999999999999 -s 5 -d 4 -S DOWN
v -t 0.29999999999999999 link-down 0.29999999999999999 5 4
d -t 0.3 -s 4 -d 5 -p rtProtoDV -e 6 -c 0 -i 31 -a 0 -x {4.3 5.1 -1 ------- null}
d -t 0.3 -s 4 -d 5 -p rtProtoDV -e 6 -c 0 -i 35 -a 0 -x {4.3 5.1 -1 ------- null}
l -t 0.29999999999999999 -s 4 -d 5 -S DOWN
v -t 0.29999999999999999 link-down 0.29999999999999999 4 5
l -t 0.29999999999999999 -s 4 -d 5 -S DOWN
v -t 0.29999999999999999 link-down 0.29999999999999999 4 5
+ -t 0.3 -s 4 -d 3 -p rtProtoDV -e 6 -c 0 -i 50 -a 0 -x {4.3 3.1 -1 ------- null}
- -t 0.3 -s 4 -d 3 -p rtProtoDV -e 6 -c 0 -i 50 -a 0 -x {4.3 3.1 -1 ------- null}
h -t 0.3 -s 4 -d 3 -p rtProtoDV -e 6 -c 0 -i 50 -a 0 -x {4.3 3.1 -1 ------- null}
+ -t 0.3 -s 5 -d 3 -p rtProtoDV -e 6 -c 0 -i 51 -a 0 -x {5.1 3.1 -1 ------- null}
- -t 0.3 -s 5 -d 3 -p rtProtoDV -e 6 -c 0 -i 51 -a 0 -x {5.1 3.1 -1 ------- null}
h -t 0.3 -s 5 -d 3 -p rtProtoDV -e 6 -c 0 -i 51 -a 0 -x {5.1 3.1 -1 ------- null}
+ -t 0.300417471 -s 1 -d 2 -p udp -e 512 -c 2 -i 52 -a 2 -x {1.0 4.1 13 ------- null}
- -t 0.302149802 -s 1 -d 2 -p udp -e 512 -c 2 -i 49 -a 2 -x {1.0 4.1 12 ------- null}
h -t 0.302149802 -s 1 -d 2 -p udp -e 512 -c 2 -i 49 -a 2 -x {1.0 4.1 -1 ------- null}
+ -t 0.307518537 -s 0 -d 2 -p udp -e 81 -c 1 -i 53 -a 1 -x {0.0 4.0 9 ------- null}
- -t 0.307518537 -s 0 -d 2 -p udp -e 81 -c 1 -i 53 -a 1 -x {0.0 4.0 9 ------- null}
h -t 0.307518537 -s 0 -d 2 -p udp -e 81 -c 1 -i 53 -a 1 -x {0.0 4.0 -1 ------- null}
r -t 0.307822330218583 -s 4 -d 3 -p rtProtoDV -e 6 -c 0 -i 30 -a 0 -x {4.3 3.1 -1 ------- null}
r -t 0.307822330218583 -s 5 -d 3 -p rtProtoDV -e 6 -c 0 -i 32 -a 0 -x {5.1 3.1 -1 ------- null}
- -t 0.310341802 -s 1 -d 2 -p udp -e 512 -c 2 -i 52 -a 2 -x {1.0 4.1 13 ------- null}
h -t 0.310341802 -s 1 -d 2 -p udp -e 512 -c 2 -i 52 -a 2 -x {1.0 4.1 -1 ------- null}
r -t 0.32082669092161 -s 4 -d 3 -p rtProtoDV -e 6 -c 0 -i 34 -a 0 -x {4.3 3.1 -1 ------- null}
+ -t 0.330959941 -s 1 -d 2 -p udp -e 512 -c 2 -i 54 -a 2 -x {1.0 4.1 14 ------- null}
- -t 0.330959941 -s 1 -d 2 -p udp -e 512 -c 2 -i 54 -a 2 -x {1.0 4.1 14 ------- null}
h -t 0.330959941 -s 1 -d 2 -p udp -e 512 -c 2 -i 54 -a 2 -x {1.0 4.1 -1 ------- null}
+ -t 0.335958987 -s 0 -d 2 -p udp -e 50 -c 1 -i 55 -a 1 -x {0.0 4.0 10 ------- null}
- -t 0.335958987 -s 0 -d 2 -p udp -e 50 -c 1 -i 55 -a 1 -x {0.0 4.0 10 ------- null}
h -t 0.335958987 -s 0 -d 2 -p udp -e 50 -c 1 -i 55 -a 1 -x {0.0 4.0 -1 ------- null}
+ -t 0.338751315 -s 1 -d 2 -p udp -e 512 -c 2 -i 56 -a 2 -x {1.0 4.1 15 ------- null}
- -t 0.339151941 -s 1 -d 2 -p udp -e 512 -c 2 -i 56 -a 2 -x {1.0 4.1 15 ------- null}
h -t 0.339151941 -s 1 -d 2 -p udp -e 512 -c 2 -i 56 -a 2 -x {1.0 4.1 -1 ------- null}
+ -t 0.341389076 -s 0 -d 2 -p udp -e 453 -c 1 -i 57 -a 1 -x {0.0 4.0 11 ------- null}
- -t 0.341389076 -s 0 -d 2 -p udp -e 453 -c 1 -i 57 -a 1 -x {0.0 4.0 11 ------- null}
h -t 0.341389076 -s 0 -d 2 -p udp -e 453 -c 1 -i 57 -a 1 -x {0.0 4.0 -1 ------- null}
r -t 0.34449333552271 -s 1 -d 2 -p rtProtoDV -e 6 -c 0 -i 41 -a 0 -x {1.2 2.1 -1 ------- null}
r -t 0.34478133552271 -s 0 -d 2 -p rtProtoDV -e 6 -c 0 -i 42 -a 0 -x {0.2 2.1 -1 ------- null}
r -t 0.353992192 -s 1 -d 2 -p udp -e 512 -c 2 -i 43 -a 2 -x {1.0 4.1 9 ------- null}
+ -t 0.353992192 -s 2 -d 3 -p udp -e 512 -c 2 -i 43 -a 2 -x {1.0 4.1 9 ------- null}
- -t 0.353992192 -s 2 -d 3 -p udp -e 512 -c 2 -i 43 -a 2 -x {1.0 4.1 9 ------- null}
h -t 0.353992192 -s 2 -d 3 -p udp -e 512 -c 2 -i 43 -a 2 -x {1.0 4.1 -1 ------- null}
+ -t 0.356803065 -s 1 -d 2 -p udp -e 512 -c 2 -i 58 -a 2 -x {1.0 4.1 16 ------- null}
- -t 0.356803065 -s 1 -d 2 -p udp -e 512 -c 2 -i 58 -a 2 -x {1.0 4.1 16 ------- null}
h -t 0.356803065 -s 1 -d 2 -p udp -e 512 -c 2 -i 58 -a 2 -x {1.0 4.1 -1 ------- null}
r -t 0.375060702 -s 1 -d 2 -p udp -e 512 -c 2 -i 44 -a 2 -x {1.0 4.1 10 ------- null}
+ -t 0.375060702 -s 2 -d 3 -p udp -e 512 -c 2 -i 44 -a 2 -x {1.0 4.1 10 ------- null}
- -t 0.375060702 -s 2 -d 3 -p udp -e 512 -c 2 -i 44 -a 2 -x {1.0 4.1 10 ------- null}
h -t 0.375060702 -s 2 -d 3 -p udp -e 512 -c 2 -i 44 -a 2 -x {1.0 4.1 -1 ------- null}
r -t 0.378036357931862 -s 1 -d 2 -p rtProtoDV -e 6 -c 0 -i 46 -a 0 -x {1.2 2.1 -1 ------- null}
+ -t 0.385680836 -s 0 -d 2 -p udp -e 28 -c 1 -i 59 -a 1 -x {0.0 4.0 12 ------- null}
- -t 0.385680836 -s 0 -d 2 -p udp -e 28 -c 1 -i 59 -a 1 -x {0.0 4.0 12 ------- null}
h -t 0.385680836 -s 0 -d 2 -p udp -e 28 -c 1 -i 59 -a 1 -x {0.0 4.0 -1 ------- null}
r -t 0.387475937 -s 0 -d 2 -p udp -e 328 -c 1 -i 45 -a 1 -x {0.0 4.0 7 ------- null}
+ -t 0.387475937 -s 2 -d 3 -p udp -e 328 -c 1 -i 45 -a 1 -x {0.0 4.0 7 ------- null}
+ -t 0.388069043 -s 0 -d 2 -p udp -e 1000 -c 1 -i 60 -a 1 -x {0.0 4.0 13 ------- null}
- -t 0.388069043 -s 0 -d 2 -p udp -e 1000 -c 1 -i 60 -a 1 -x {0.0 4.0 13 ------- null}
h -t 0.388069043 -s 0 -d 2 -p udp -e 1000 -c 1 -i 60 -a 1 -x {0.0 4.0 -1 ------- null}
+ -t 0.388069043 -s 0 -d 2 -p udp -e 94 -c 1 -i 61 -a 1 -x {0.0 4.0 14 ------- null}
+ -t 0.390296975 -s 1 -d 2 -p udp -e 512 -c 2 -i 62 -a 2 -x {1.0 4.1 17 ------- null}
- -t 0.390296975 -s 1 -d 2 -p udp -e 512 -c 2 -i 62 -a 2 -x {1.0 4.1 17 ------- null}
h -t 0.390296975 -s 1 -d 2 -p udp -e 512 -c 2 -i 62 -a 2 -x {1.0 4.1 -1 ------- null}
+ -t 0.390369454 -s 0 -d 2 -p udp -e 260 -c 1 -i 63 -a 1 -x {0.0 4.0 15 ------- null}
- -t 0.395540702 -s 2 -d 3 -p udp -e 328 -c 1 -i 45 -a 1 -x {0.0 4.0 7 ------- null}
h -t 0.395540702 -s 2 -d 3 -p udp -e 328 -c 1 -i 45 -a 1 -x {0.0 4.0 -1 ------- null}
+ -t 0.399577726796073 -s 5 -d 3 -p rtProtoDV -e 6 -c 0 -i 64 -a 0 -x {5.1 3.1 -1 ------- null}
- -t 0.399577726796073 -s 5 -d 3 -p rtProtoDV -e 6 -c 0 -i 64 -a 0 -x {5.1 3.1 -1 ------- null}
h -t 0.399577726796073 -s 5 -d 3 -p rtProtoDV -e 6 -c 0 -i 64 -a 0 -x {5.1 3.1 -1 ------- null}
r -t 0.399612117 -s 0 -d 2 -p udp -e 184 -c 1 -i 47 -a 1 -x {0.0 4.0 8 ------- null}
+ -t 0.399612117 -s 2 -d 3 -p udp -e 184 -c 1 -i 47 -a 1 -x {0.0 4.0 8 ------- null}
r -t 0.40024 -s 4 -d 3 -p rtProtoDV -e 6 -c 0 -i 50 -a 0 -x {4.3 3.1 -1 ------- null}
r -t 0.40024 -s 5 -d 3 -p rtProtoDV -e 6 -c 0 -i 51 -a 0 -x {5.1 3.1 -1 ------- null}
r -t 0.402149802 -s 1 -d 2 -p udp -e 512 -c 2 -i 48 -a 2 -x {1.0 4.1 11 ------- null}
+ -t 0.402149802 -s 2 -d 3 -p udp -e 512 -c 2 -i 48 -a 2 -x {1.0 4.1 11 ------- null}
- -t 0.408660702 -s 2 -d 3 -p udp -e 184 -c 1 -i 47 -a 1 -x {0.0 4.0 8 ------- null}
h -t 0.408660702 -s 2 -d 3 -p udp -e 184 -c 1 -i 47 -a 1 -x {0.0 4.0 -1 ------- null}
r -t 0.410341802 -s 1 -d 2 -p udp -e 512 -c 2 -i 49 -a 2 -x {1.0 4.1 12 ------- null}
+ -t 0.410341802 -s 2 -d 3 -p udp -e 512 -c 2 -i 49 -a 2 -x {1.0 4.1 12 ------- null}
r -t 0.410758537 -s 0 -d 2 -p udp -e 81 -c 1 -i 53 -a 1 -x {0.0 4.0 9 ------- null}
+ -t 0.410758537 -s 2 -d 3 -p udp -e 81 -c 1 -i 53 -a 1 -x {0.0 4.0 9 ------- null}
- -t 0.416020702 -s 2 -d 3 -p udp -e 512 -c 2 -i 48 -a 2 -x {1.0 4.1 11 ------- null}
h -t 0.416020702 -s 2 -d 3 -p udp -e 512 -c 2 -i 48 -a 2 -x {1.0 4.1 -1 ------- null}
r -t 0.418533802 -s 1 -d 2 -p udp -e 512 -c 2 -i 52 -a 2 -x {1.0 4.1 13 ------- null}
+ -t 0.418533802 -s 2 -d 3 -p udp -e 512 -c 2 -i 52 -a 2 -x {1.0 4.1 13 ------- null}
- -t 0.428069043 -s 0 -d 2 -p udp -e 94 -c 1 -i 61 -a 1 -x {0.0 4.0 14 ------- null}
h -t 0.428069043 -s 0 -d 2 -p udp -e 94 -c 1 -i 61 -a 1 -x {0.0 4.0 -1 ------- null}
- -t 0.431829043 -s 0 -d 2 -p udp -e 260 -c 1 -i 63 -a 1 -x {0.0 4.0 15 ------- null}
h -t 0.431829043 -s 0 -d 2 -p udp -e 260 -c 1 -i 63 -a 1 -x {0.0 4.0 -1 ------- null}
- -t 0.436500702 -s 2 -d 3 -p udp -e 512 -c 2 -i 49 -a 2 -x {1.0 4.1 12 ------- null}
h -t 0.436500702 -s 2 -d 3 -p udp -e 512 -c 2 -i 49 -a 2 -x {1.0 4.1 -1 ------- null}
r -t 0.437958987 -s 0 -d 2 -p udp -e 50 -c 1 -i 55 -a 1 -x {0.0 4.0 10 ------- null}
+ -t 0.437958987 -s 2 -d 3 -p udp -e 50 -c 1 -i 55 -a 1 -x {0.0 4.0 10 ------- null}
r -t 0.439151941 -s 1 -d 2 -p udp -e 512 -c 2 -i 54 -a 2 -x {1.0 4.1 14 ------- null}
+ -t 0.439151941 -s 2 -d 3 -p udp -e 512 -c 2 -i 54 -a 2 -x {1.0 4.1 14 ------- null}
+ -t 0.447104865 -s 1 -d 2 -p udp -e 512 -c 2 -i 65 -a 2 -x {1.0 4.1 18 ------- null}
- -t 0.447104865 -s 1 -d 2 -p udp -e 512 -c 2 -i 65 -a 2 -x {1.0 4.1 18 ------- null}
h -t 0.447104865 -s 1 -d 2 -p udp -e 512 -c 2 -i 65 -a 2 -x {1.0 4.1 -1 ------- null}
r -t 0.447343941 -s 1 -d 2 -p udp -e 512 -c 2 -i 56 -a 2 -x {1.0 4.1 15 ------- null}
+ -t 0.447343941 -s 2 -d 3 -p udp -e 512 -c 2 -i 56 -a 2 -x {1.0 4.1 15 ------- null}
d -t 0.447343941 -s 2 -d 3 -p udp -e 512 -c 2 -i 56 -a 2 -x {1.0 4.1 15 ------- null}
- -t 0.456980702 -s 2 -d 3 -p udp -e 81 -c 1 -i 53 -a 1 -x {0.0 4.0 9 ------- null}
h -t 0.456980702 -s 2 -d 3 -p udp -e 81 -c 1 -i 53 -a 1 -x {0.0 4.0 -1 ------- null}
r -t 0.459509076 -s 0 -d 2 -p udp -e 453 -c 1 -i 57 -a 1 -x {0.0 4.0 11 ------- null}
+ -t 0.459509076 -s 2 -d 3 -p udp -e 453 -c 1 -i 57 -a 1 -x {0.0 4.0 11 ------- null}
- -t 0.460220702 -s 2 -d 3 -p udp -e 512 -c 2 -i 52 -a 2 -x {1.0 4.1 13 ------- null}
h -t 0.460220702 -s 2 -d 3 -p udp -e 512 -c 2 -i 52 -a 2 -x {1.0 4.1 -1 ------- null}
r -t 0.464995065 -s 1 -d 2 -p udp -e 512 -c 2 -i 58 -a 2 -x {1.0 4.1 16 ------- null}
+ -t 0.464995065 -s 2 -d 3 -p udp -e 512 -c 2 -i 58 -a 2 -x {1.0 4.1 16 ------- null}
+ -t 0.468937835 -s 1 -d 2 -p udp -e 512 -c 2 -i 66 -a 2 -x {1.0 4.1 19 ------- null}
- -t 0.468937835 -s 1 -d 2 -p udp -e 512 -c 2 -i 66 -a 2 -x {1.0 4.1 19 ------- null}
h -t 0.468937835 -s 1 -d 2 -p udp -e 512 -c 2 -i 66 -a 2 -x {1.0 4.1 -1 ------- null}
r -t 0.474472192 -s 2 -d 3 -p udp -e 512 -c 2 -i 43 -a 2 -x {1.0 4.1 9 ------- null}
+ -t 0.474472192 -s 3 -d 4 -p udp -e 512 -c 2 -i 43 -a 2 -x {1.0 4.1 9 ------- null}
- -t 0.474472192 -s 3 -d 4 -p udp -e 512 -c 2 -i 43 -a 2 -x {1.0 4.1 9 ------- null}
h -t 0.474472192 -s 3 -d 4 -p udp -e 512 -c 2 -i 43 -a 2 -x {1.0 4.1 -1 ------- null}
- -t 0.480700702 -s 2 -d 3 -p udp -e 50 -c 1 -i 55 -a 1 -x {0.0 4.0 10 ------- null}
h -t 0.480700702 -s 2 -d 3 -p udp -e 50 -c 1 -i 55 -a 1 -x {0.0 4.0 -1 ------- null}
+ -t 0.480918204 -s 0 -d 2 -p udp -e 679 -c 1 -i 67 -a 1 -x {0.0 4.0 16 ------- null}
- -t 0.480918204 -s 0 -d 2 -p udp -e 679 -c 1 -i 67 -a 1 -x {0.0 4.0 16 ------- null}
h -t 0.480918204 -s 0 -d 2 -p udp -e 679 -c 1 -i 67 -a 1 -x {0.0 4.0 -1 ------- null}
- -t 0.482700702 -s 2 -d 3 -p udp -e 512 -c 2 -i 54 -a 2 -x {1.0 4.1 14 ------- null}
h -t 0.482700702 -s 2 -d 3 -p udp -e 512 -c 2 -i 54 -a 2 -x {1.0 4.1 -1 ------- null}
r -t 0.486800836 -s 0 -d 2 -p udp -e 28 -c 1 -i 59 -a 1 -x {0.0 4.0 12 ------- null}
+ -t 0.486800836 -s 2 -d 3 -p udp -e 28 -c 1 -i 59 -a 1 -x {0.0 4.0 12 ------- null}
+ -t 0.488968875 -s 0 -d 2 -p udp -e 304 -c 1 -i 68 -a 1 -x {0.0 4.0 17 ------- null}
r -t 0.495540702 -s 2 -d 3 -p udp -e 512 -c 2 -i 44 -a 2 -x {1.0 4.1 10 ------- null}
+ -t 0.495540702 -s 3 -d 4 -p udp -e 512 -c 2 -i 44 -a 2 -x {1.0 4.1 10 ------- null}
- -t 0.495540702 -s 3 -d 4 -p udp -e 512 -c 2 -i 44 -a 2 -x {1.0 4.1 10 ------- null}
h -t 0.495540702 -s 3 -d 4 -p udp -e 512 -c 2 -i 44 -a 2 -x {1.0 4.1 -1 ------- null}
+ -t 0.496140318 -s 0 -d 2 -p udp -e 670 -c 1 -i 69 -a 1 -x {0.0 4.0 18 ------- null}
r -t 0.498488975 -s 1 -d 2 -p udp -e 512 -c 2 -i 62 -a 2 -x {1.0 4.1 17 ------- null}
+ -t 0.498488975 -s 2 -d 3 -p udp -e 512 -c 2 -i 62 -a 2 -x {1.0 4.1 17 ------- null}
+ -t 0.498773138 -s 0 -d 2 -p udp -e 427 -c 1 -i 70 -a 1 -x {0.0 4.0 19 ------- null}
r -t 0.499817726796073 -s 5 -d 3 -p rtProtoDV -e 6 -c 0 -i 64 -a 0 -x {5.1 3.1 -1 ------- null}
- -t 0.503180702 -s 2 -d 3 -p udp -e 453 -c 1 -i 57 -a 1 -x {0.0 4.0 11 ------- null}
h -t 0.503180702 -s 2 -d 3 -p udp -e 453 -c 1 -i 57 -a 1 -x {0.0 4.0 -1 ------- null}
- -t 0.508078204 -s 0 -d 2 -p udp -e 304 -c 1 -i 68 -a 1 -x {0.0 4.0 17 ------- null}
h -t 0.508078204 -s 0 -d 2 -p udp -e 304 -c 1 -i 68 -a 1 -x {0.0 4.0 -1 ------- null}
r -t 0.508660702 -s 2 -d 3 -p udp -e 328 -c 1 -i 45 -a 1 -x {0.0 4.0 7 ------- null}
+ -t 0.508660702 -s 3 -d 4 -p udp -e 328 -c 1 -i 45 -a 1 -x {0.0 4.0 7 ------- null}
+ -t 0.510554658 -s 0 -d 2 -p udp -e 558 -c 1 -i 71 -a 1 -x {0.0 4.0 20 ------- null}
+ -t 0.510832435 -s 1 -d 2 -p udp -e 512 -c 2 -i 72 -a 2 -x {1.0 4.1 20 ------- null}
- -t 0.510832435 -s 1 -d 2 -p udp -e 512 -c 2 -i 72 -a 2 -x {1.0 4.1 20 ------- null}
h -t 0.510832435 -s 1 -d 2 -p udp -e 512 -c 2 -i 72 -a 2 -x {1.0 4.1 -1 ------- null}
r -t 0.516020702 -s 2 -d 3 -p udp -e 184 -c 1 -i 47 -a 1 -x {0.0 4.0 8 ------- null}
+ -t 0.516020702 -s 3 -d 4 -p udp -e 184 -c 1 -i 47 -a 1 -x {0.0 4.0 8 ------- null}
- -t 0.516020702 -s 3 -d 4 -p udp -e 328 -c 1 -i 45 -a 1 -x {0.0 4.0 7 ------- null}
h -t 0.516020702 -s 3 -d 4 -p udp -e 328 -c 1 -i 45 -a 1 -x {0.0 4.0 -1 ------- null}
- -t 0.520238204 -s 0 -d 2 -p udp -e 670 -c 1 -i 69 -a 1 -x {0.0 4.0 18 ------- null}
h -t 0.520238204 -s 0 -d 2 -p udp -e 670 -c 1 -i 69 -a 1 -x {0.0 4.0 -1 ------- null}
- -t 0.521300702 -s 2 -d 3 -p udp -e 512 -c 2 -i 58 -a 2 -x {1.0 4.1 16 ------- null}
h -t 0.521300702 -s 2 -d 3 -p udp -e 512 -c 2 -i 58 -a 2 -x {1.0 4.1 -1 ------- null}
r -t 0.528069043 -s 0 -d 2 -p udp -e 1000 -c 1 -i 60 -a 1 -x {0.0 4.0 13 ------- null}
+ -t 0.528069043 -s 2 -d 3 -p udp -e 1000 -c 1 -i 60 -a 1 -x {0.0 4.0 13 ------- null}
- -t 0.529140702 -s 3 -d 4 -p udp -e 184 -c 1 -i 47 -a 1 -x {0.0 4.0 8 ------- null}
h -t 0.529140702 -s 3 -d 4 -p udp -e 184 -c 1 -i 47 -a 1 -x {0.0 4.0 -1 ------- null}
r -t 0.531829043 -s 0 -d 2 -p udp -e 94 -c 1 -i 61 -a 1 -x {0.0 4.0 14 ------- null}
+ -t 0.531829043 -s 2 -d 3 -p udp -e 94 -c 1 -i 61 -a 1 -x {0.0 4.0 14 ------- null}
r -t 0.536500702 -s 2 -d 3 -p udp -e 512 -c 2 -i 48 -a 2 -x {1.0 4.1 11 ------- null}
+ -t 0.536500702 -s 3 -d 4 -p udp -e 512 -c 2 -i 48 -a 2 -x {1.0 4.1 11 ------- null}
- -t 0.536500702 -s 3 -d 4 -p udp -e 512 -c 2 -i 48 -a 2 -x {1.0 4.1 11 ------- null}
h -t 0.536500702 -s 3 -d 4 -p udp -e 512 -c 2 -i 48 -a 2 -x {1.0 4.1 -1 ------- null}
- -t 0.541780702 -s 2 -d 3 -p udp -e 28 -c 1 -i 59 -a 1 -x {0.0 4.0 12 ------- null}
h -t 0.541780702 -s 2 -d 3 -p udp -e 28 -c 1 -i 59 -a 1 -x {0.0 4.0 -1 ------- null}
r -t 0.542229043 -s 0 -d 2 -p udp -e 260 -c 1 -i 63 -a 1 -x {0.0 4.0 15 ------- null}
+ -t 0.542229043 -s 2 -d 3 -p udp -e 260 -c 1 -i 63 -a 1 -x {0.0 4.0 15 ------- null}
- -t 0.542900702 -s 2 -d 3 -p udp -e 512 -c 2 -i 62 -a 2 -x {1.0 4.1 17 ------- null}
h -t 0.542900702 -s 2 -d 3 -p udp -e 512 -c 2 -i 62 -a 2 -x {1.0 4.1 -1 ------- null}
+ -t 0.544449585 -s 1 -d 2 -p udp -e 512 -c 2 -i 73 -a 2 -x {1.0 4.1 21 ------- null}
- -t 0.544449585 -s 1 -d 2 -p udp -e 512 -c 2 -i 73 -a 2 -x {1.0 4.1 21 ------- null}
h -t 0.544449585 -s 1 -d 2 -p udp -e 512 -c 2 -i 73 -a 2 -x {1.0 4.1 -1 ------- null}
- -t 0.547038204 -s 0 -d 2 -p udp -e 427 -c 1 -i 70 -a 1 -x {0.0 4.0 19 ------- null}
h -t 0.547038204 -s 0 -d 2 -p udp -e 427 -c 1 -i 70 -a 1 -x {0.0 4.0 -1 ------- null}
+ -t 0.549291345 -s 1 -d 2 -p udp -e 512 -c 2 -i 74 -a 2 -x {1.0 4.1 22 ------- null}
+ -t 0.550384351 -s 1 -d 2 -p udp -e 512 -c 2 -i 75 -a 2 -x {1.0 4.1 23 ------- null}
- -t 0.552641585 -s 1 -d 2 -p udp -e 512 -c 2 -i 74 -a 2 -x {1.0 4.1 22 ------- null}
h -t 0.552641585 -s 1 -d 2 -p udp -e 512 -c 2 -i 74 -a 2 -x {1.0 4.1 -1 ------- null}
r -t 0.555296865 -s 1 -d 2 -p udp -e 512 -c 2 -i 65 -a 2 -x {1.0 4.1 18 ------- null}
+ -t 0.555296865 -s 2 -d 3 -p udp -e 512 -c 2 -i 65 -a 2 -x {1.0 4.1 18 ------- null}
+ -t 0.555541749 -s 1 -d 2 -p udp -e 512 -c 2 -i 76 -a 2 -x {1.0 4.1 24 ------- null}
r -t 0.556980702 -s 2 -d 3 -p udp -e 512 -c 2 -i 49 -a 2 -x {1.0 4.1 12 ------- null}
+ -t 0.556980702 -s 3 -d 4 -p udp -e 512 -c 2 -i 49 -a 2 -x {1.0 4.1 12 ------- null}
- -t 0.556980702 -s 3 -d 4 -p udp -e 512 -c 2 -i 49 -a 2 -x {1.0 4.1 12 ------- null}
h -t 0.556980702 -s 3 -d 4 -p udp -e 512 -c 2 -i 49 -a 2 -x {1.0 4.1 -1 ------- null}
r -t 0.560220702 -s 2 -d 3 -p udp -e 81 -c 1 -i 53 -a 1 -x {0.0 4.0 9 ------- null}
+ -t 0.560220702 -s 3 -d 4 -p udp -e 81 -c 1 -i 53 -a 1 -x {0.0 4.0 9 ------- null}
- -t 0.560833585 -s 1 -d 2 -p udp -e 512 -c 2 -i 75 -a 2 -x {1.0 4.1 23 ------- null}
h -t 0.560833585 -s 1 -d 2 -p udp -e 512 -c 2 -i 75 -a 2 -x {1.0 4.1 -1 ------- null}
- -t 0.563380702 -s 2 -d 3 -p udp -e 1000 -c 1 -i 60 -a 1 -x {0.0 4.0 13 ------- null}
h -t 0.563380702 -s 2 -d 3 -p udp -e 1000 -c 1 -i 60 -a 1 -x {0.0 4.0 -1 ------- null}
- -t 0.564118204 -s 0 -d 2 -p udp -e 558 -c 1 -i 71 -a 1 -x {0.0 4.0 20 ------- null}
h -t 0.564118204 -s 0 -d 2 -p udp -e 558 -c 1 -i 71 -a 1 -x {0.0 4.0 -1 ------- null}
- -t 0.569025585 -s 1 -d 2 -p udp -e 512 -c 2 -i 76 -a 2 -x {1.0 4.1 24 ------- null}
h -t 0.569025585 -s 1 -d 2 -p udp -e 512 -c 2 -i 76 -a 2 -x {1.0 4.1 -1 ------- null}
r -t 0.577129835 -s 1 -d 2 -p udp -e 512 -c 2 -i 66 -a 2 -x {1.0 4.1 19 ------- null}
+ -t 0.577129835 -s 2 -d 3 -p udp -e 512 -c 2 -i 66 -a 2 -x {1.0 4.1 19 ------- null}
- -t 0.577460702 -s 3 -d 4 -p udp -e 81 -c 1 -i 53 -a 1 -x {0.0 4.0 9 ------- null}
h -t 0.577460702 -s 3 -d 4 -p udp -e 81 -c 1 -i 53 -a 1 -x {0.0 4.0 -1 ------- null}
r -t 0.580700702 -s 2 -d 3 -p udp -e 512 -c 2 -i 52 -a 2 -x {1.0 4.1 13 ------- null}
+ -t 0.580700702 -s 3 -d 4 -p udp -e 512 -c 2 -i 52 -a 2 -x {1.0 4.1 13 ------- null}
- -t 0.580700702 -s 3 -d 4 -p udp -e 512 -c 2 -i 52 -a 2 -x {1.0 4.1 13 ------- null}
h -t 0.580700702 -s 3 -d 4 -p udp -e 512 -c 2 -i 52 -a 2 -x {1.0 4.1 -1 ------- null}