+ 0.0001 0 2 udp 1000 ------- 1 0.1 5.0 0 0
- 0.0001 0 2 udp 1000 ------- 1 0.1 5.0 0 0
+ 0.0001 0 2 udp 1000 ------- 1 0.1 5.0 1 1
+ 0.0001 0 2 udp 1000 ------- 1 0.1 5.0 2 2
+ 0.0001 0 2 udp 994 ------- 1 0.1 5.0 3 3
- 0.0401 0 2 udp 1000 ------- 1 0.1 5.0 1 1
- 0.0801 0 2 udp 1000 ------- 1 0.1 5.0 2 2
- 0.1201 0 2 udp 994 ------- 1 0.1 5.0 3 3
r 0.1401 0 2 udp 1000 ------- 1 0.1 5.0 0 0
+ 0.1401 2 3 udp 1000 ------- 1 0.1 5.0 0 0
- 0.1401 2 3 udp 1000 ------- 1 0.1 5.0 0 0
+ 0.143014 0 2 udp 1000 ------- 1 0.0 4.0 0 4
+ 0.143014 0 2 udp 1000 ------- 1 0.0 4.0 1 5
+ 0.143014 0 2 udp 127 ------- 1 0.0 4.0 2 6
- 0.15986 0 2 udp 1000 ------- 1 0.0 4.0 0 4
+ 0.177231 0 2 udp 409 ------- 1 0.1 5.0 4 7
+ 0.179288 0 2 udp 581 ------- 1 0.1 5.0 5 8
r 0.1801 0 2 udp 1000 ------- 1 0.1 5.0 1 1
+ 0.1801 2 3 udp 1000 ------- 1 0.1 5.0 1 1
- 0.1801 2 3 udp 1000 ------- 1 0.1 5.0 1 1
+ 0.192311 0 2 udp 725 ------- 1 0.1 5.0 6 9
- 0.19986 0 2 udp 1000 ------- 1 0.0 4.0 1 5
+ 0.219059 0 2 udp 587 ------- 1 0.1 5.0 7 10
r 0.2201 0 2 udp 1000 ------- 1 0.1 5.0 2 2
+ 0.2201 2 3 udp 1000 ------- 1 0.1 5.0 2 2
- 0.2201 2 3 udp 1000 ------- 1 0.1 5.0 2 2
+ 0.223127 0 2 udp 904 ------- 1 0.0 4.0 3 11
+ 0.231209 0 2 udp 223 ------- 1 0.0 4.0 4 12
+ 0.235821 0 2 udp 76 ------- 1 0.0 4.0 5 13
+ 0.238843 0 2 udp 872 ------- 1 0.0 4.0 6 14
- 0.23986 0 2 udp 127 ------- 1 0.0 4.0 2 6
- 0.24494 0 2 udp 409 ------- 1 0.1 5.0 4 7
r 0.25986 0 2 udp 994 ------- 1 0.1 5.0 3 3
+ 0.25986 2 3 udp 994 ------- 1 0.1 5.0 3 3
- 0.2601 2 3 udp 994 ------- 1 0.1 5.0 3 3
- 0.2613 0 2 udp 581 ------- 1 0.1 5.0 5 8
+ 0.262627 0 2 udp 107 ------- 1 0.0 4.0 7 15
+ 0.269351 0 2 udp 677 ------- 1 0.0 4.0 8 16
+ 0.27393 0 2 udp 328 ------- 1 0.0 4.0 9 17
+ 0.277613 0 2 udp 184 ------- 1 0.1 5.0 8 18
r 0.2801 2 3 udp 1000 ------- 1 0.1 5.0 0 0
+ 0.2801 3 5 udp 1000 ------- 1 0.1 5.0 0 0
- 0.2801 3 5 udp 1000 ------- 1 0.1 5.0 0 0
- 0.28454 0 2 udp 725 ------- 1 0.1 5.0 6 9
+ 0.290948 0 2 udp 87 ------- 1 0.0 4.0 10 19
+ 0.298056 0 2 udp 711 ------- 1 0.1 5.0 9 20
r 0.29986 0 2 udp 1000 ------- 1 0.0 4.0 0 4
+ 0.29986 2 3 udp 1000 ------- 1 0.0 4.0 0 4
- 0.29986 2 3 udp 1000 ------- 1 0.0 4.0 0 4
- 0.31354 0 2 udp 587 ------- 1 0.1 5.0 7 10
r 0.3201 2 3 udp 1000 ------- 1 0.1 5.0 1 1
+ 0.3201 3 5 udp 1000 ------- 1 0.1 5.0 1 1
- 0.3201 3 5 udp 1000 ------- 1 0.1 5.0 1 1
+ 0.332892 0 2 udp 195 ------- 1 0.1 5.0 10 21
+ 0.335723 0 2 udp 50 ------- 1 0.0 4.0 11 22
- 0.33702 0 2 udp 904 ------- 1 0.0 4.0 3 11
r 0.33986 0 2 udp 1000 ------- 1 0.0 4.0 1 5
+ 0.33986 2 3 udp 1000 ------- 1 0.0 4.0 1 5
- 0.33986 2 3 udp 1000 ------- 1 0.0 4.0 1 5
r 0.34494 0 2 udp 127 ------- 1 0.0 4.0 2 6
+ 0.34494 2 3 udp 127 ------- 1 0.0 4.0 2 6
+ 0.355627 0 2 udp 1000 ------- 1 0.0 4.0 12 23
+ 0.355627 0 2 udp 107 ------- 1 0.0 4.0 13 24
r 0.3601 2 3 udp 1000 ------- 1 0.1 5.0 2 2
+ 0.3601 3 5 udp 1000 ------- 1 0.1 5.0 2 2
- 0.3601 3 5 udp 1000 ------- 1 0.1 5.0 2 2
r 0.3613 0 2 udp 409 ------- 1 0.1 5.0 4 7
+ 0.3613 2 3 udp 409 ------- 1 0.1 5.0 4 7
- 0.37318 0 2 udp 223 ------- 1 0.0 4.0 4 12
+ 0.376982 0 2 udp 837 ------- 1 0.1 5.0 11 25
+ 0.377437 0 2 udp 28 ------- 1 0.1 5.0 12 26
- 0.37986 2 3 udp 127 ------- 1 0.0 4.0 2 6
- 0.3821 0 2 udp 76 ------- 1 0.0 4.0 5 13
+ 0.382166 0 2 udp 1000 ------- 1 0.0 4.0 14 27
+ 0.382166 0 2 udp 94 ------- 1 0.0 4.0 15 28
r 0.38454 0 2 udp 581 ------- 1 0.1 5.0 5 8
+ 0.38454 2 3 udp 581 ------- 1 0.1 5.0 5 8
- 0.38494 2 3 udp 409 ------- 1 0.1 5.0 4 7
- 0.38514 0 2 udp 872 ------- 1 0.0 4.0 6 14
r 0.39986 2 3 udp 994 ------- 1 0.1 5.0 3 3
+ 0.39986 3 5 udp 994 ------- 1 0.1 5.0 3 3
- 0.4001 3 5 udp 994 ------- 1 0.1 5.0 3 3
- 0.4013 2 3 udp 581 ------- 1 0.1 5.0 5 8
+ 0.407035 0 2 udp 1000 ------- 1 0.1 5.0 13 29
+ 0.407035 0 2 udp 1000 ------- 1 0.1 5.0 14 30
+ 0.407035 0 2 udp 264 ------- 1 0.1 5.0 15 31
+ 0.412683 0 2 udp 546 ------- 1 0.0 4.0 16 32
r 0.41354 0 2 udp 725 ------- 1 0.1 5.0 6 9
+ 0.41354 2 3 udp 725 ------- 1 0.1 5.0 6 9
+ 0.418227 0 2 udp 201 ------- 1 0.0 4.0 17 33
- 0.42002 0 2 udp 107 ------- 1 0.0 4.0 7 15
r 0.4201 3 5 udp 1000 ------- 1 0.1 5.0 0 0
- 0.4243 0 2 udp 677 ------- 1 0.0 4.0 8 16
- 0.42454 2 3 udp 725 ------- 1 0.1 5.0 6 9
+ 0.42535 0 2 udp 179 ------- 1 0.1 5.0 16 34
r 0.43702 0 2 udp 587 ------- 1 0.1 5.0 7 10
+ 0.43702 2 3 udp 587 ------- 1 0.1 5.0 7 10
r 0.43986 2 3 udp 1000 ------- 1 0.0 4.0 0 4
+ 0.43986 3 4 udp 1000 ------- 1 0.0 4.0 0 4
- 0.43986 3 4 udp 1000 ------- 1 0.0 4.0 0 4
- 0.45138 0 2 udp 328 ------- 1 0.0 4.0 9 17
- 0.45354 2 3 udp 587 ------- 1 0.1 5.0 7 10
r 0.4601 3 5 udp 1000 ------- 1 0.1 5.0 1 1
- 0.4645 0 2 udp 184 ------- 1 0.1 5.0 8 18
+ 0.469589 0 2 udp 66 ------- 1 0.0 4.0 18 35
- 0.47186 0 2 udp 87 ------- 1 0.0 4.0 10 19
r 0.47318 0 2 udp 904 ------- 1 0.0 4.0 3 11
+ 0.47318 2 3 udp 904 ------- 1 0.0 4.0 3 11
- 0.47534 0 2 udp 711 ------- 1 0.1 5.0 9 20
- 0.47702 2 3 udp 904 ------- 1 0.0 4.0 3 11
r 0.47986 2 3 udp 1000 ------- 1 0.0 4.0 1 5
+ 0.47986 3 4 udp 1000 ------- 1 0.0 4.0 1 5
- 0.47986 3 4 udp 1000 ------- 1 0.0 4.0 1 5
r 0.4821 0 2 udp 223 ------- 1 0.0 4.0 4 12
+ 0.4821 2 3 udp 223 ------- 1 0.0 4.0 4 12
r 0.48494 2 3 udp 127 ------- 1 0.0 4.0 2 6
+ 0.48494 3 4 udp 127 ------- 1 0.0 4.0 2 6
r 0.48514 0 2 udp 76 ------- 1 0.0 4.0 5 13
+ 0.48514 2 3 udp 76 ------- 1 0.0 4.0 5 13
r 0.5001 3 5 udp 1000 ------- 1 0.1 5.0 2 2
r 0.5013 2 3 udp 409 ------- 1 0.1 5.0 4 7
+ 0.5013 3 5 udp 409 ------- 1 0.1 5.0 4 7
- 0.5013 3 5 udp 409 ------- 1 0.1 5.0 4 7
- 0.50378 0 2 udp 195 ------- 1 0.1 5.0 10 21
- 0.51158 0 2 udp 50 ------- 1 0.0 4.0 11 22
- 0.51318 2 3 udp 223 ------- 1 0.0 4.0 4 12
- 0.51358 0 2 udp 1000 ------- 1 0.0 4.0 12 23
- 0.51986 3 4 udp 127 ------- 1 0.0 4.0 2 6
r 0.52002 0 2 udp 872 ------- 1 0.0 4.0 6 14
+ 0.52002 2 3 udp 872 ------- 1 0.0 4.0 6 14
- 0.5221 2 3 udp 76 ------- 1 0.0 4.0 5 13
r 0.5243 0 2 udp 107 ------- 1 0.0 4.0 7 15
+ 0.5243 2 3 udp 107 ------- 1 0.0 4.0 7 15
r 0.52454 2 3 udp 581 ------- 1 0.1 5.0 5 8
+ 0.52454 3 5 udp 581 ------- 1 0.1 5.0 5 8
- 0.52454 3 5 udp 581 ------- 1 0.1 5.0 5 8
- 0.52514 2 3 udp 872 ------- 1 0.0 4.0 6 14
+ 0.526307 0 2 udp 295 ------- 1 0.0 4.0 19 36
r 0.53986 3 5 udp 994 ------- 1 0.1 5.0 3 3
+ 0.54725 0 2 udp 1000 ------- 1 0.0 4.0 20 37
+ 0.54725 0 2 udp 796 ------- 1 0.0 4.0 21 38
r 0.55138 0 2 udp 677 ------- 1 0.0 4.0 8 16
+ 0.55138 2 3 udp 677 ------- 1 0.0 4.0 8 16
+ 0.551509 0 2 udp 840 ------- 1 0.1 5.0 17 39
r 0.55354 2 3 udp 725 ------- 1 0.1 5.0 6 9
+ 0.55354 3 5 udp 725 ------- 1 0.1 5.0 6 9
- 0.55354 3 5 udp 725 ------- 1 0.1 5.0 6 9
- 0.55358 0 2 udp 107 ------- 1 0.0 4.0 13 24
- 0.55786 0 2 udp 837 ------- 1 0.1 5.0 11 25
- 0.56002 2 3 udp 107 ------- 1 0.0 4.0 7 15
- 0.5643 2 3 udp 677 ------- 1 0.0 4.0 8 16
r 0.5645 0 2 udp 328 ------- 1 0.0 4.0 9 17
+ 0.5645 2 3 udp 328 ------- 1 0.0 4.0 9 17
r 0.57186 0 2 udp 184 ------- 1 0.1 5.0 8 18
+ 0.57186 2 3 udp 184 ------- 1 0.1 5.0 8 18
r 0.57534 0 2 udp 87 ------- 1 0.0 4.0 10 19
+ 0.57534 2 3 udp 87 ------- 1 0.0 4.0 10 19
r 0.57702 2 3 udp 587 ------- 1 0.1 5.0 7 10
+ 0.57702 3 5 udp 587 ------- 1 0.1 5.0 7 10
r 0.57986 3 4 udp 1000 ------- 1 0.0 4.0 0 4
- 0.58254 3 5 udp 587 ------- 1 0.1 5.0 7 10
+ 0.583721 0 2 udp 27 ------- 1 0.1 5.0 18 40
- 0.59134 0 2 udp 28 ------- 1 0.1 5.0 12 26
- 0.59138 2 3 udp 328 ------- 1 0.0 4.0 9 17
- 0.59246 0 2 udp 1000 ------- 1 0.0 4.0 14 27
r 0.60378 0 2 udp 711 ------- 1 0.1 5.0 9 20
+ 0.60378 2 3 udp 711 ------- 1 0.1 5.0 9 20
- 0.6045 2 3 udp 184 ------- 1 0.1 5.0 8 18
r 0.61158 0 2 udp 195 ------- 1 0.1 5.0 10 21
+ 0.61158 2 3 udp 195 ------- 1 0.1 5.0 10 21
- 0.61186 2 3 udp 87 ------- 1 0.0 4.0 10 19
r 0.61318 2 3 udp 904 ------- 1 0.0 4.0 3 11
+ 0.61318 3 4 udp 904 ------- 1 0.0 4.0 3 11
- 0.61318 3 4 udp 904 ------- 1 0.0 4.0 3 11
r 0.61358 0 2 udp 50 ------- 1 0.0 4.0 11 22
+ 0.61358 2 3 udp 50 ------- 1 0.0 4.0 11 22
- 0.61534 2 3 udp 711 ------- 1 0.1 5.0 9 20
r 0.61766 3 5 udp 409 ------- 1 0.1 5.0 4 7
r 0.61986 3 4 udp 1000 ------- 1 0.0 4.0 1 5
r 0.6221 2 3 udp 223 ------- 1 0.0 4.0 4 12
+ 0.6221 3 4 udp 223 ------- 1 0.0 4.0 4 12
r 0.62494 3 4 udp 127 ------- 1 0.0 4.0 2 6
r 0.62514 2 3 udp 76 ------- 1 0.0 4.0 5 13
+ 0.62514 3 4 udp 76 ------- 1 0.0 4.0 5 13
- 0.63246 0 2 udp 94 ------- 1 0.0 4.0 15 28
- 0.63622 0 2 udp 1000 ------- 1 0.1 5.0 13 29
+ 0.63881 0 2 udp 788 ------- 1 0.1 5.0 19 41
+ 0.638877 0 2 udp 861 ------- 1 0.1 5.0 20 42
- 0.64378 2 3 udp 195 ------- 1 0.1 5.0 10 21
+ 0.645357 0 2 udp 1000 ------- 1 0.0 4.0 22 43
+ 0.645357 0 2 udp 196 ------- 1 0.0 4.0 23 44
r 0.64778 3 5 udp 581 ------- 1 0.1 5.0 5 8
- 0.64934 3 4 udp 223 ------- 1 0.0 4.0 4 12
- 0.65158 2 3 udp 50 ------- 1 0.0 4.0 11 22
r 0.65358 0 2 udp 1000 ------- 1 0.0 4.0 12 23
+ 0.65358 2 3 udp 1000 ------- 1 0.0 4.0 12 23
- 0.65358 2 3 udp 1000 ------- 1 0.0 4.0 12 23
r 0.65786 0 2 udp 107 ------- 1 0.0 4.0 13 24
+ 0.65786 2 3 udp 107 ------- 1 0.0 4.0 13 24
- 0.65826 3 4 udp 76 ------- 1 0.0 4.0 5 13
r 0.66002 2 3 udp 872 ------- 1 0.0 4.0 6 14
+ 0.66002 3 4 udp 872 ------- 1 0.0 4.0 6 14
- 0.6613 3 4 udp 872 ------- 1 0.0 4.0 6 14
r 0.6643 2 3 udp 107 ------- 1 0.0 4.0 7 15
+ 0.6643 3 4 udp 107 ------- 1 0.0 4.0 7 15
+ 0.664337 0 2 udp 1000 ------- 1 0.1 5.0 21 45
+ 0.664337 0 2 udp 497 ------- 1 0.1 5.0 22 46
- 0.67622 0 2 udp 1000 ------- 1 0.1 5.0 14 30
r 0.68254 3 5 udp 725 ------- 1 0.1 5.0 6 9
r 0.69134 0 2 udp 837 ------- 1 0.1 5.0 11 25
+ 0.69134 2 3 udp 837 ------- 1 0.1 5.0 11 25
r 0.69138 2 3 udp 677 ------- 1 0.0 4.0 8 16
+ 0.69138 3 4 udp 677 ------- 1 0.0 4.0 8 16
r 0.69246 0 2 udp 28 ------- 1 0.1 5.0 12 26
+ 0.69246 2 3 udp 28 ------- 1 0.1 5.0 12 26
- 0.69358 2 3 udp 107 ------- 1 0.0 4.0 13 24
- 0.69618 3 4 udp 107 ------- 1 0.0 4.0 7 15
- 0.69786 2 3 udp 837 ------- 1 0.1 5.0 11 25
- 0.70046 3 4 udp 677 ------- 1 0.0 4.0 8 16
r 0.7045 2 3 udp 328 ------- 1 0.0 4.0 9 17
+ 0.7045 3 4 udp 328 ------- 1 0.0 4.0 9 17
r 0.70602 3 5 udp 587 ------- 1 0.1 5.0 7 10
r 0.71186 2 3 udp 184 ------- 1 0.1 5.0 8 18
+ 0.71186 3 5 udp 184 ------- 1 0.1 5.0 8 18
- 0.71186 3 5 udp 184 ------- 1 0.1 5.0 8 18
r 0.71534 2 3 udp 87 ------- 1 0.0 4.0 10 19
+ 0.71534 3 4 udp 87 ------- 1 0.0 4.0 10 19
- 0.71622 0 2 udp 264 ------- 1 0.1 5.0 15 31
+ 0.717054 0 2 udp 315 ------- 1 0.1 5.0 23 47
- 0.72678 0 2 udp 546 ------- 1 0.0 4.0 16 32
- 0.72754 3 4 udp 328 ------- 1 0.0 4.0 9 17
- 0.73134 2 3 udp 28 ------- 1 0.1 5.0 12 26
r 0.73246 0 2 udp 1000 ------- 1 0.0 4.0 14 27
+ 0.73246 2 3 udp 1000 ------- 1 0.0 4.0 14 27
- 0.73246 2 3 udp 1000 ------- 1 0.0 4.0 14 27
r 0.73622 0 2 udp 94 ------- 1 0.0 4.0 15 28
+ 0.73622 2 3 udp 94 ------- 1 0.0 4.0 15 28
+ 0.737733 0 2 udp 432 ------- 1 0.0 4.0 24 48
- 0.74066 3 4 udp 87 ------- 1 0.0 4.0 10 19
+ 0.742523 0 2 udp 103 ------- 1 0.1 5.0 24 49
r 0.74378 2 3 udp 711 ------- 1 0.1 5.0 9 20
+ 0.74378 3 5 udp 711 ------- 1 0.1 5.0 9 20
- 0.74378 3 5 udp 711 ------- 1 0.1 5.0 9 20
+ 0.745967 0 2 udp 159 ------- 1 0.1 5.0 25 50
- 0.74862 0 2 udp 201 ------- 1 0.0 4.0 17 33
r 0.74934 3 4 udp 904 ------- 1 0.0 4.0 3 11
+ 0.751353 0 2 udp 267 ------- 1 0.1 5.0 26 51
r 0.75158 2 3 udp 195 ------- 1 0.1 5.0 10 21
+ 0.75158 3 5 udp 195 ------- 1 0.1 5.0 10 21
+ 0.753359 0 2 udp 110 ------- 1 0.0 4.0 25 52
r 0.75358 2 3 udp 50 ------- 1 0.0 4.0 11 22
+ 0.75358 3 4 udp 50 ------- 1 0.0 4.0 11 22
- 0.75358 3 4 udp 50 ------- 1 0.0 4.0 11 22
- 0.75666 0 2 udp 179 ------- 1 0.1 5.0 16 34
r 0.75826 3 4 udp 223 ------- 1 0.0 4.0 4 12
r 0.7613 3 4 udp 76 ------- 1 0.0 4.0 5 13
+ 0.763769 0 2 udp 291 ------- 1 0.1 5.0 27 53
- 0.76382 0 2 udp 66 ------- 1 0.0 4.0 18 35
- 0.76646 0 2 udp 295 ------- 1 0.0 4.0 19 36
+ 0.770311 0 2 udp 122 ------- 1 0.1 5.0 28 54
- 0.77222 3 5 udp 195 ------- 1 0.1 5.0 10 21
- 0.77246 2 3 udp 94 ------- 1 0.0 4.0 15 28
r 0.77622 0 2 udp 1000 ------- 1 0.1 5.0 13 29
+ 0.77622 2 3 udp 1000 ------- 1 0.1 5.0 13 29
- 0.77622 2 3 udp 1000 ------- 1 0.1 5.0 13 29
- 0.77826 0 2 udp 1000 ------- 1 0.0 4.0 20 37
r 0.79358 2 3 udp 1000 ------- 1 0.0 4.0 12 23
+ 0.79358 3 4 udp 1000 ------- 1 0.0 4.0 12 23
- 0.79358 3 4 udp 1000 ------- 1 0.0 4.0 12 23
+ 0.795929 0 2 udp 949 ------- 1 0.0 4.0 26 55
r 0.79618 3 4 udp 872 ------- 1 0.0 4.0 6 14
r 0.79786 2 3 udp 107 ------- 1 0.0 4.0 13 24
+ 0.79786 3 4 udp 107 ------- 1 0.0 4.0 13 24
r 0.80046 3 4 udp 107 ------- 1 0.0 4.0 7 15
+ 0.81306 0 2 udp 302 ------- 1 0.0 4.0 27 56
r 0.81622 0 2 udp 1000 ------- 1 0.1 5.0 14 30
+ 0.81622 2 3 udp 1000 ------- 1 0.1 5.0 14 30
- 0.81622 2 3 udp 1000 ------- 1 0.1 5.0 14 30
- 0.81826 0 2 udp 796 ------- 1 0.0 4.0 21 38
r 0.81922 3 5 udp 184 ------- 1 0.1 5.0 8 18
+ 0.821798 0 2 udp 1000 ------- 1 0.0 4.0 28 57
+ 0.821798 0 2 udp 1000 ------- 1 0.0 4.0 29 58
d 0.821798 0 2 udp 1000 ------- 1 0.0 4.0 29 58
+ 0.821798 0 2 udp 1000 ------- 1 0.0 4.0 30 59
d 0.821798 0 2 udp 1000 ------- 1 0.0 4.0 30 59
+ 0.821798 0 2 udp 1000 ------- 1 0.0 4.0 31 60
d 0.821798 0 2 udp 1000 ------- 1 0.0 4.0 31 60
+ 0.821798 0 2 udp 327 ------- 1 0.0 4.0 32 61
d 0.821798 0 2 udp 327 ------- 1 0.0 4.0 32 61
r 0.82678 0 2 udp 264 ------- 1 0.1 5.0 15 31
+ 0.82678 2 3 udp 264 ------- 1 0.1 5.0 15 31
r 0.82754 3 4 udp 677 ------- 1 0.0 4.0 8 16
r 0.83134 2 3 udp 837 ------- 1 0.1 5.0 11 25
+ 0.83134 3 5 udp 837 ------- 1 0.1 5.0 11 25
- 0.83134 3 5 udp 837 ------- 1 0.1 5.0 11 25
r 0.83246 2 3 udp 28 ------- 1 0.1 5.0 12 26
+ 0.83246 3 5 udp 28 ------- 1 0.1 5.0 12 26
- 0.83358 3 4 udp 107 ------- 1 0.0 4.0 13 24
r 0.84066 3 4 udp 328 ------- 1 0.0 4.0 9 17
r 0.84414 3 4 udp 87 ------- 1 0.0 4.0 10 19
r 0.84862 0 2 udp 546 ------- 1 0.0 4.0 16 32
+ 0.84862 2 3 udp 546 ------- 1 0.0 4.0 16 32
- 0.8501 0 2 udp 840 ------- 1 0.1 5.0 17 39
r 0.85558 3 4 udp 50 ------- 1 0.0 4.0 11 22
- 0.85622 2 3 udp 264 ------- 1 0.1 5.0 15 31
r 0.85666 0 2 udp 201 ------- 1 0.0 4.0 17 33
+ 0.85666 2 3 udp 201 ------- 1 0.0 4.0 17 33
r 0.86382 0 2 udp 179 ------- 1 0.1 5.0 16 34
+ 0.86382 2 3 udp 179 ------- 1 0.1 5.0 16 34
- 0.86482 3 5 udp 28 ------- 1 0.1 5.0 12 26
r 0.86646 0 2 udp 66 ------- 1 0.0 4.0 18 35
+ 0.86646 2 3 udp 66 ------- 1 0.0 4.0 18 35
- 0.86678 2 3 udp 546 ------- 1 0.0 4.0 16 32
+ 0.871159 0 2 udp 551 ------- 1 0.1 5.0 29 62
r 0.87222 3 5 udp 711 ------- 1 0.1 5.0 9 20
r 0.87246 2 3 udp 1000 ------- 1 0.0 4.0 14 27
+ 0.87246 3 4 udp 1000 ------- 1 0.0 4.0 14 27
- 0.87246 3 4 udp 1000 ------- 1 0.0 4.0 14 27
r 0.87622 2 3 udp 94 ------- 1 0.0 4.0 15 28
+ 0.87622 3 4 udp 94 ------- 1 0.0 4.0 15 28
+ 0.877722 0 2 udp 46 ------- 1 0.0 4.0 33 63
d 0.877722 0 2 udp 46 ------- 1 0.0 4.0 33 63
r 0.87826 0 2 udp 295 ------- 1 0.0 4.0 19 36
+ 0.87826 2 3 udp 295 ------- 1 0.0 4.0 19 36
r 0.88002 3 5 udp 195 ------- 1 0.1 5.0 10 21
- 0.8837 0 2 udp 27 ------- 1 0.1 5.0 18 40
- 0.88478 0 2 udp 788 ------- 1 0.1 5.0 19 41
- 0.88862 2 3 udp 201 ------- 1 0.0 4.0 17 33
- 0.89666 2 3 udp 179 ------- 1 0.1 5.0 16 34
- 0.90382 2 3 udp 66 ------- 1 0.0 4.0 18 35
- 0.90646 2 3 udp 295 ------- 1 0.0 4.0 19 36
- 0.91246 3 4 udp 94 ------- 1 0.0 4.0 15 28
r 0.91622 2 3 udp 1000 ------- 1 0.1 5.0 13 29
+ 0.91622 3 5 udp 1000 ------- 1 0.1 5.0 13 29
- 0.91622 3 5 udp 1000 ------- 1 0.1 5.0 13 29
- 0.9163 0 2 udp 861 ------- 1 0.1 5.0 20 42
r 0.91826 0 2 udp 1000 ------- 1 0.0 4.0 20 37
+ 0.91826 2 3 udp 1000 ------- 1 0.0 4.0 20 37
- 0.91826 2 3 udp 1000 ------- 1 0.0 4.0 20 37
r 0.93358 3 4 udp 1000 ------- 1 0.0 4.0 12 23
r 0.93786 3 4 udp 107 ------- 1 0.0 4.0 13 24
r 0.9501 0 2 udp 796 ------- 1 0.0 4.0 21 38
+ 0.9501 2 3 udp 796 ------- 1 0.0 4.0 21 38
- 0.95074 0 2 udp 1000 ------- 1 0.0 4.0 22 43
+ 0.954745 0 2 udp 504 ------- 1 0.0 4.0 34 64
r 0.95622 2 3 udp 1000 ------- 1 0.1 5.0 14 30
+ 0.95622 3 5 udp 1000 ------- 1 0.1 5.0 14 30
- 0.95622 3 5 udp 1000 ------- 1 0.1 5.0 14 30
- 0.95826 2 3 udp 796 ------- 1 0.0 4.0 21 38
r 0.96482 3 5 udp 837 ------- 1 0.1 5.0 11 25
r 0.96594 3 5 udp 28 ------- 1 0.1 5.0 12 26
r 0.96678 2 3 udp 264 ------- 1 0.1 5.0 15 31
+ 0.96678 3 5 udp 264 ------- 1 0.1 5.0 15 31
r 0.9837 0 2 udp 840 ------- 1 0.1 5.0 17 39
+ 0.9837 2 3 udp 840 ------- 1 0.1 5.0 17 39
r 0.98478 0 2 udp 27 ------- 1 0.1 5.0 18 40
+ 0.98478 2 3 udp 27 ------- 1 0.1 5.0 18 40
r 0.98862 2 3 udp 546 ------- 1 0.0 4.0 16 32
+ 0.98862 3 4 udp 546 ------- 1 0.0 4.0 16 32
- 0.98862 3 4 udp 546 ------- 1 0.0 4.0 16 32
- 0.9901 2 3 udp 840 ------- 1 0.1 5.0 17 39
- 0.99074 0 2 udp 196 ------- 1 0.0 4.0 23 44
- 0.99622 3 5 udp 264 ------- 1 0.1 5.0 15 31
r 0.99666 2 3 udp 201 ------- 1 0.0 4.0 17 33
+ 0.99666 3 4 udp 201 ------- 1 0.0 4.0 17 33
+ 0.996886 0 2 udp 1000 ------- 1 0.0 4.0 35 65
+ 0.996886 0 2 udp 1000 ------- 1 0.0 4.0 36 66
+ 0.996886 0 2 udp 849 ------- 1 0.0 4.0 37 67
- 0.99858 0 2 udp 1000 ------- 1 0.1 5.0 21 45
+ 1.000238 0 2 udp 63 ------- 1 0.1 5.0 30 68
r 1.00382 2 3 udp 179 ------- 1 0.1 5.0 16 34
+ 1.00382 3 5 udp 179 ------- 1 0.1 5.0 16 34
+ 1.005072 0 2 udp 108 ------- 1 0.0 4.0 38 69
r 1.00646 2 3 udp 66 ------- 1 0.0 4.0 18 35
+ 1.00646 3 4 udp 66 ------- 1 0.0 4.0 18 35
- 1.00678 3 5 udp 179 ------- 1 0.1 5.0 16 34
- 1.01046 3 4 udp 201 ------- 1 0.0 4.0 17 33
r 1.01246 3 4 udp 1000 ------- 1 0.0 4.0 14 27
r 1.01622 3 4 udp 94 ------- 1 0.0 4.0 15 28
r 1.0163 0 2 udp 788 ------- 1 0.1 5.0 19 41
+ 1.0163 2 3 udp 788 ------- 1 0.1 5.0 19 41
r 1.01826 2 3 udp 295 ------- 1 0.0 4.0 19 36
+ 1.01826 3 4 udp 295 ------- 1 0.0 4.0 19 36
- 1.0185 3 4 udp 66 ------- 1 0.0 4.0 18 35
- 1.02114 3 4 udp 295 ------- 1 0.0 4.0 19 36
- 1.0237 2 3 udp 27 ------- 1 0.1 5.0 18 40
- 1.02478 2 3 udp 788 ------- 1 0.1 5.0 19 41
- 1.03858 0 2 udp 497 ------- 1 0.1 5.0 22 46
+ 1.048254 0 2 udp 1000 ------- 1 0.1 5.0 31 70
+ 1.048254 0 2 udp 722 ------- 1 0.1 5.0 32 71
d 1.048254 0 2 udp 722 ------- 1 0.1 5.0 32 71
r 1.05074 0 2 udp 861 ------- 1 0.1 5.0 20 42
+ 1.05074 2 3 udp 861 ------- 1 0.1 5.0 20 42
r 1.05622 3 5 udp 1000 ------- 1 0.1 5.0 13 29
- 1.0563 2 3 udp 861 ------- 1 0.1 5.0 20 42
+ 1.058146 0 2 udp 243 ------- 1 0.1 5.0 33 72
d 1.058146 0 2 udp 243 ------- 1 0.1 5.0 33 72
r 1.05826 2 3 udp 1000 ------- 1 0.0 4.0 20 37
+ 1.05826 3 4 udp 1000 ------- 1 0.0 4.0 20 37
- 1.05826 3 4 udp 1000 ------- 1 0.0 4.0 20 37
- 1.05846 0 2 udp 315 ------- 1 0.1 5.0 23 47
- 1.07106 0 2 udp 432 ------- 1 0.0 4.0 24 48
- 1.08834 0 2 udp 103 ------- 1 0.1 5.0 24 49
r 1.0901 2 3 udp 796 ------- 1 0.0 4.0 21 38
+ 1.0901 3 4 udp 796 ------- 1 0.0 4.0 21 38
r 1.09074 0 2 udp 1000 ------- 1 0.0 4.0 22 43
+ 1.09074 2 3 udp 1000 ------- 1 0.0 4.0 22 43
- 1.09074 2 3 udp 1000 ------- 1 0.0 4.0 22 43
- 1.09246 0 2 udp 159 ------- 1 0.1 5.0 25 50
r 1.09622 3 5 udp 1000 ------- 1 0.1 5.0 14 30
- 1.09826 3 4 udp 796 ------- 1 0.0 4.0 21 38
r 1.09858 0 2 udp 196 ------- 1 0.0 4.0 23 44
+ 1.09858 2 3 udp 196 ------- 1 0.0 4.0 23 44
- 1.09882 0 2 udp 267 ------- 1 0.1 5.0 26 51
r 1.10678 3 5 udp 264 ------- 1 0.1 5.0 15 31
+ 1.108154 0 2 udp 326 ------- 1 0.0 4.0 39 73
- 1.1095 0 2 udp 110 ------- 1 0.0 4.0 25 52
r 1.11046 3 4 udp 546 ------- 1 0.0 4.0 16 32
- 1.1139 0 2 udp 291 ------- 1 0.1 5.0 27 53
r 1.11394 3 5 udp 179 ------- 1 0.1 5.0 16 34
+ 1.117563 0 2 udp 786 ------- 1 0.0 4.0 40 74
r 1.1185 3 4 udp 201 ------- 1 0.0 4.0 17 33
r 1.12114 3 4 udp 66 ------- 1 0.0 4.0 18 35
r 1.1237 2 3 udp 840 ------- 1 0.1 5.0 17 39
+ 1.1237 3 5 udp 840 ------- 1 0.1 5.0 17 39
- 1.1237 3 5 udp 840 ------- 1 0.1 5.0 17 39
r 1.12478 2 3 udp 27 ------- 1 0.1 5.0 18 40
+ 1.12478 3 5 udp 27 ------- 1 0.1 5.0 18 40
- 1.12554 0 2 udp 122 ------- 1 0.1 5.0 28 54
- 1.13042 0 2 udp 949 ------- 1 0.0 4.0 26 55
- 1.13074 2 3 udp 196 ------- 1 0.0 4.0 23 44
r 1.13294 3 4 udp 295 ------- 1 0.0 4.0 19 36
r 1.13858 0 2 udp 1000 ------- 1 0.1 5.0 21 45
+ 1.13858 2 3 udp 1000 ------- 1 0.1 5.0 21 45
- 1.13858 2 3 udp 1000 ------- 1 0.1 5.0 21 45
r 1.1563 2 3 udp 788 ------- 1 0.1 5.0 19 41
+ 1.1563 3 5 udp 788 ------- 1 0.1 5.0 19 41
- 1.1573 3 5 udp 27 ------- 1 0.1 5.0 18 40
- 1.15838 3 5 udp 788 ------- 1 0.1 5.0 19 41
r 1.15846 0 2 udp 497 ------- 1 0.1 5.0 22 46
+ 1.15846 2 3 udp 497 ------- 1 0.1 5.0 22 46
- 1.16838 0 2 udp 302 ------- 1 0.0 4.0 27 56
r 1.17106 0 2 udp 315 ------- 1 0.1 5.0 23 47
+ 1.17106 2 3 udp 315 ------- 1 0.1 5.0 23 47
- 1.17858 2 3 udp 497 ------- 1 0.1 5.0 22 46
- 1.18046 0 2 udp 1000 ------- 1 0.0 4.0 28 57
+ 1.181645 0 2 udp 411 ------- 1 0.0 4.0 41 75
r 1.18834 0 2 udp 432 ------- 1 0.0 4.0 24 48
+ 1.18834 2 3 udp 432 ------- 1 0.0 4.0 24 48
r 1.19074 2 3 udp 861 ------- 1 0.1 5.0 20 42
+ 1.19074 3 5 udp 861 ------- 1 0.1 5.0 20 42
- 1.19074 3 5 udp 861 ------- 1 0.1 5.0 20 42
r 1.19246 0 2 udp 103 ------- 1 0.1 5.0 24 49
+ 1.19246 2 3 udp 103 ------- 1 0.1 5.0 24 49
r 1.19826 3 4 udp 1000 ------- 1 0.0 4.0 20 37
- 1.19846 2 3 udp 315 ------- 1 0.1 5.0 23 47
r 1.19882 0 2 udp 159 ------- 1 0.1 5.0 25 50
+ 1.19882 2 3 udp 159 ------- 1 0.1 5.0 25 50
+ 1.199048 0 2 udp 552 ------- 1 0.0 4.0 42 76
r 1.2095 0 2 udp 267 ------- 1 0.1 5.0 26 51
+ 1.2095 2 3 udp 267 ------- 1 0.1 5.0 26 51
- 1.21106 2 3 udp 432 ------- 1 0.0 4.0 24 48
r 1.2139 0 2 udp 110 ------- 1 0.0 4.0 25 52
+ 1.2139 2 3 udp 110 ------- 1 0.0 4.0 25 52
- 1.22046 0 2 udp 551 ------- 1 0.1 5.0 29 62
+ 1.22269 0 2 udp 53 ------- 1 0.0 4.0 43 77
r 1.22554 0 2 udp 291 ------- 1 0.1 5.0 27 53
+ 1.22554 2 3 udp 291 ------- 1 0.1 5.0 27 53
d 1.22554 2 3 udp 291 ------- 1 0.1 5.0 27 53
- 1.22834 2 3 udp 103 ------- 1 0.1 5.0 24 49
+ 1.229238 0 2 udp 422 ------- 1 0.0 4.0 44 78
r 1.2301 3 4 udp 796 ------- 1 0.0 4.0 21 38
r 1.23042 0 2 udp 122 ------- 1 0.1 5.0 28 54
+ 1.23042 2 3 udp 122 ------- 1 0.1 5.0 28 54
r 1.23074 2 3 udp 1000 ------- 1 0.0 4.0 22 43
+ 1.23074 3 4 udp 1000 ------- 1 0.0 4.0 22 43
- 1.23074 3 4 udp 1000 ------- 1 0.0 4.0 22 43
- 1.23246 2 3 udp 159 ------- 1 0.1 5.0 25 50
r 1.23858 2 3 udp 196 ------- 1 0.0 4.0 23 44
+ 1.23858 3 4 udp 196 ------- 1 0.0 4.0 23 44
+ 1.238742 0 2 udp 449 ------- 1 0.1 5.0 34 79
- 1.23882 2 3 udp 267 ------- 1 0.1 5.0 26 51
- 1.2425 0 2 udp 504 ------- 1 0.0 4.0 34 64
+ 1.243287 0 2 udp 362 ------- 1 0.1 5.0 35 80
- 1.2495 2 3 udp 110 ------- 1 0.0 4.0 25 52
- 1.2539 2 3 udp 122 ------- 1 0.1 5.0 28 54
r 1.2573 3 5 udp 840 ------- 1 0.1 5.0 17 39
r 1.25838 3 5 udp 27 ------- 1 0.1 5.0 18 40
- 1.26266 0 2 udp 1000 ------- 1 0.0 4.0 35 65
r 1.26838 0 2 udp 949 ------- 1 0.0 4.0 26 55
+ 1.26838 2 3 udp 949 ------- 1 0.0 4.0 26 55
- 1.26838 2 3 udp 949 ------- 1 0.0 4.0 26 55
- 1.27074 3 4 udp 196 ------- 1 0.0 4.0 23 44
r 1.27858 2 3 udp 1000 ------- 1 0.1 5.0 21 45
+ 1.27858 3 5 udp 1000 ------- 1 0.1 5.0 21 45
- 1.27858 3 5 udp 1000 ------- 1 0.1 5.0 21 45
r 1.28046 0 2 udp 302 ------- 1 0.0 4.0 27 56
+ 1.28046 2 3 udp 302 ------- 1 0.0 4.0 27 56
r 1.2899 3 5 udp 788 ------- 1 0.1 5.0 19 41
+ 1.290643 0 2 udp 237 ------- 1 0.1 5.0 36 81
+ 1.294938 0 2 udp 921 ------- 1 0.0 4.0 45 82
r 1.29846 2 3 udp 497 ------- 1 0.1 5.0 22 46
+ 1.29846 3 5 udp 497 ------- 1 0.1 5.0 22 46
- 1.30266 0 2 udp 1000 ------- 1 0.0 4.0 36 66
- 1.30634 2 3 udp 302 ------- 1 0.0 4.0 27 56
r 1.31106 2 3 udp 315 ------- 1 0.1 5.0 23 47
+ 1.31106 3 5 udp 315 ------- 1 0.1 5.0 23 47
- 1.31858 3 5 udp 497 ------- 1 0.1 5.0 22 46
r 1.32046 0 2 udp 1000 ------- 1 0.0 4.0 28 57
+ 1.32046 2 3 udp 1000 ------- 1 0.0 4.0 28 57
- 1.32046 2 3 udp 1000 ------- 1 0.0 4.0 28 57
r 1.32518 3 5 udp 861 ------- 1 0.1 5.0 20 42
r 1.32834 2 3 udp 432 ------- 1 0.0 4.0 24 48
+ 1.32834 3 4 udp 432 ------- 1 0.0 4.0 24 48
- 1.32834 3 4 udp 432 ------- 1 0.0 4.0 24 48
r 1.33246 2 3 udp 103 ------- 1 0.1 5.0 24 49
+ 1.33246 3 5 udp 103 ------- 1 0.1 5.0 24 49
- 1.33846 3 5 udp 315 ------- 1 0.1 5.0 23 47
r 1.33882 2 3 udp 159 ------- 1 0.1 5.0 25 50
+ 1.33882 3 5 udp 159 ------- 1 0.1 5.0 25 50
r 1.3425 0 2 udp 551 ------- 1 0.1 5.0 29 62
+ 1.3425 2 3 udp 551 ------- 1 0.1 5.0 29 62
- 1.34266 0 2 udp 849 ------- 1 0.0 4.0 37 67
+ 1.347193 0 2 udp 1000 ------- 1 0.0 4.0 46 83
+ 1.347193 0 2 udp 371 ------- 1 0.0 4.0 47 84
r 1.3495 2 3 udp 267 ------- 1 0.1 5.0 26 51
+ 1.3495 3 5 udp 267 ------- 1 0.1 5.0 26 51
- 1.35106 3 5 udp 103 ------- 1 0.1 5.0 24 49
r 1.3539 2 3 udp 110 ------- 1 0.0 4.0 25 52
+ 1.3539 3 4 udp 110 ------- 1 0.0 4.0 25 52
- 1.3539 3 4 udp 110 ------- 1 0.0 4.0 25 52
- 1.35518 3 5 udp 159 ------- 1 0.1 5.0 25 50
r 1.35878 2 3 udp 122 ------- 1 0.1 5.0 28 54
+ 1.35878 3 5 udp 122 ------- 1 0.1 5.0 28 54
- 1.36046 2 3 udp 551 ------- 1 0.1 5.0 29 62
- 1.36154 3 5 udp 267 ------- 1 0.1 5.0 26 51
r 1.36266 0 2 udp 504 ------- 1 0.0 4.0 34 64
+ 1.36266 2 3 udp 504 ------- 1 0.0 4.0 34 64
r 1.37074 3 4 udp 1000 ------- 1 0.0 4.0 22 43
- 1.37222 3 5 udp 122 ------- 1 0.1 5.0 28 54
- 1.37662 0 2 udp 63 ------- 1 0.1 5.0 30 68
r 1.37858 3 4 udp 196 ------- 1 0.0 4.0 23 44
- 1.37914 0 2 udp 108 ------- 1 0.0 4.0 38 69
- 1.3825 2 3 udp 504 ------- 1 0.0 4.0 34 64
- 1.38346 0 2 udp 1000 ------- 1 0.1 5.0 31 70
r 1.40266 0 2 udp 1000 ------- 1 0.0 4.0 35 65
+ 1.40266 2 3 udp 1000 ------- 1 0.0 4.0 35 65
- 1.40266 2 3 udp 1000 ------- 1 0.0 4.0 35 65
r 1.40634 2 3 udp 949 ------- 1 0.0 4.0 26 55
+ 1.40634 3 4 udp 949 ------- 1 0.0 4.0 26 55
- 1.40634 3 4 udp 949 ------- 1 0.0 4.0 26 55
r 1.41842 2 3 udp 302 ------- 1 0.0 4.0 27 56
+ 1.41842 3 4 udp 302 ------- 1 0.0 4.0 27 56
r 1.41858 3 5 udp 1000 ------- 1 0.1 5.0 21 45
- 1.42346 0 2 udp 326 ------- 1 0.0 4.0 39 73
+ 1.43288 0 2 udp 69 ------- 1 0.0 4.0 48 85
- 1.4365 0 2 udp 786 ------- 1 0.0 4.0 40 74
r 1.43846 3 5 udp 497 ------- 1 0.1 5.0 22 46
r 1.44266 0 2 udp 1000 ------- 1 0.0 4.0 36 66
+ 1.44266 2 3 udp 1000 ------- 1 0.0 4.0 36 66
- 1.44266 2 3 udp 1000 ------- 1 0.0 4.0 36 66
+ 1.443796 0 2 udp 274 ------- 1 0.1 5.0 37 86
- 1.4443 3 4 udp 302 ------- 1 0.0 4.0 27 56
r 1.44562 3 4 udp 432 ------- 1 0.0 4.0 24 48
+ 1.447305 0 2 udp 742 ------- 1 0.1 5.0 38 87
r 1.45106 3 5 udp 315 ------- 1 0.1 5.0 23 47
r 1.45518 3 5 udp 103 ------- 1 0.1 5.0 24 49
r 1.4583 3 4 udp 110 ------- 1 0.0 4.0 25 52
r 1.46046 2 3 udp 1000 ------- 1 0.0 4.0 28 57
+ 1.46046 3 4 udp 1000 ------- 1 0.0 4.0 28 57
- 1.46046 3 4 udp 1000 ------- 1 0.0 4.0 28 57
r 1.46154 3 5 udp 159 ------- 1 0.1 5.0 25 50
- 1.46794 0 2 udp 411 ------- 1 0.0 4.0 41 75
r 1.47222 3 5 udp 267 ------- 1 0.1 5.0 26 51
r 1.47662 0 2 udp 849 ------- 1 0.0 4.0 37 67
+ 1.47662 2 3 udp 849 ------- 1 0.0 4.0 37 67
r 1.4771 3 5 udp 122 ------- 1 0.1 5.0 28 54
r 1.47914 0 2 udp 63 ------- 1 0.1 5.0 30 68
+ 1.47914 2 3 udp 63 ------- 1 0.1 5.0 30 68
r 1.4825 2 3 udp 551 ------- 1 0.1 5.0 29 62
+ 1.4825 3 5 udp 551 ------- 1 0.1 5.0 29 62
- 1.4825 3 5 udp 551 ------- 1 0.1 5.0 29 62
- 1.48266 2 3 udp 849 ------- 1 0.0 4.0 37 67
r 1.48346 0 2 udp 108 ------- 1 0.0 4.0 38 69
+ 1.48346 2 3 udp 108 ------- 1 0.0 4.0 38 69
- 1.48438 0 2 udp 552 ------- 1 0.0 4.0 42 76
+ 1.493885 0 2 udp 1000 ------- 1 0.0 4.0 49 88
+ 1.493885 0 2 udp 418 ------- 1 0.0 4.0 50 89
r 1.50266 2 3 udp 504 ------- 1 0.0 4.0 34 64
+ 1.50266 3 4 udp 504 ------- 1 0.0 4.0 34 64
- 1.50266 3 4 udp 504 ------- 1 0.0 4.0 34 64
+ 1.50421 0 2 udp 115 ------- 1 0.1 5.0 39 90
+ 1.506224 0 2 udp 418 ------- 1 0.0 4.0 51 91
- 1.50646 0 2 udp 53 ------- 1 0.0 4.0 43 77
- 1.50858 0 2 udp 422 ------- 1 0.0 4.0 44 78
- 1.51662 2 3 udp 63 ------- 1 0.1 5.0 30 68
- 1.51914 2 3 udp 108 ------- 1 0.0 4.0 38 69
+ 1.523221 0 2 udp 408 ------- 1 0.1 5.0 40 92
r 1.52346 0 2 udp 1000 ------- 1 0.1 5.0 31 70
+ 1.52346 2 3 udp 1000 ------- 1 0.1 5.0 31 70
- 1.52346 2 3 udp 1000 ------- 1 0.1 5.0 31 70
- 1.52546 0 2 udp 449 ------- 1 0.1 5.0 34 79
r 1.5365 0 2 udp 326 ------- 1 0.0 4.0 39 73
+ 1.5365 2 3 udp 326 ------- 1 0.0 4.0 39 73
r 1.54266 2 3 udp 1000 ------- 1 0.0 4.0 35 65
+ 1.54266 3 4 udp 1000 ------- 1 0.0 4.0 35 65
- 1.54266 3 4 udp 1000 ------- 1 0.0 4.0 35 65
- 1.54342 0 2 udp 362 ------- 1 0.1 5.0 35 80
r 1.5443 3 4 udp 949 ------- 1 0.0 4.0 26 55
+ 1.551957 0 2 udp 388 ------- 1 0.1 5.0 41 93
r 1.55638 3 4 udp 302 ------- 1 0.0 4.0 27 56
- 1.5579 0 2 udp 237 ------- 1 0.1 5.0 36 81
- 1.56346 2 3 udp 326 ------- 1 0.0 4.0 39 73
- 1.56738 0 2 udp 921 ------- 1 0.0 4.0 45 82
r 1.56794 0 2 udp 786 ------- 1 0.0 4.0 40 74
+ 1.56794 2 3 udp 786 ------- 1 0.0 4.0 40 74
- 1.5765 2 3 udp 786 ------- 1 0.0 4.0 40 74
r 1.58266 2 3 udp 1000 ------- 1 0.0 4.0 36 66
+ 1.58266 3 4 udp 1000 ------- 1 0.0 4.0 36 66
- 1.58266 3 4 udp 1000 ------- 1 0.0 4.0 36 66
r 1.58438 0 2 udp 411 ------- 1 0.0 4.0 41 75
+ 1.58438 2 3 udp 411 ------- 1 0.0 4.0 41 75
r 1.60046 3 4 udp 1000 ------- 1 0.0 4.0 28 57
- 1.60422 0 2 udp 1000 ------- 1 0.0 4.0 46 83
r 1.60454 3 5 udp 551 ------- 1 0.1 5.0 29 62
r 1.60646 0 2 udp 552 ------- 1 0.0 4.0 42 76
+ 1.60646 2 3 udp 552 ------- 1 0.0 4.0 42 76
- 1.60794 2 3 udp 411 ------- 1 0.0 4.0 41 75
r 1.60858 0 2 udp 53 ------- 1 0.0 4.0 43 77
+ 1.60858 2 3 udp 53 ------- 1 0.0 4.0 43 77
+ 1.615886 0 2 udp 22 ------- 1 0.1 5.0 42 94
r 1.61662 2 3 udp 849 ------- 1 0.0 4.0 37 67
+ 1.61662 3 4 udp 849 ------- 1 0.0 4.0 37 67
r 1.61914 2 3 udp 63 ------- 1 0.1 5.0 30 68
+ 1.61914 3 5 udp 63 ------- 1 0.1 5.0 30 68
- 1.61914 3 5 udp 63 ------- 1 0.1 5.0 30 68
- 1.62266 3 4 udp 849 ------- 1 0.0 4.0 37 67
r 1.62282 3 4 udp 504 ------- 1 0.0 4.0 34 64
r 1.62346 2 3 udp 108 ------- 1 0.0 4.0 38 69
+ 1.62346 3 4 udp 108 ------- 1 0.0 4.0 38 69
- 1.62438 2 3 udp 552 ------- 1 0.0 4.0 42 76
r 1.62546 0 2 udp 422 ------- 1 0.0 4.0 44 78
+ 1.62546 2 3 udp 422 ------- 1 0.0 4.0 44 78
r 1.64342 0 2 udp 449 ------- 1 0.1 5.0 34 79
+ 1.64342 2 3 udp 449 ------- 1 0.1 5.0 34 79
- 1.64422 0 2 udp 371 ------- 1 0.0 4.0 47 84
- 1.64646 2 3 udp 53 ------- 1 0.0 4.0 43 77
- 1.64858 2 3 udp 422 ------- 1 0.0 4.0 44 78
- 1.65662 3 4 udp 108 ------- 1 0.0 4.0 38 69
r 1.6579 0 2 udp 362 ------- 1 0.1 5.0 35 80
+ 1.6579 2 3 udp 362 ------- 1 0.1 5.0 35 80
- 1.65906 0 2 udp 69 ------- 1 0.0 4.0 48 85
- 1.66182 0 2 udp 274 ------- 1 0.1 5.0 37 86
r 1.66346 2 3 udp 1000 ------- 1 0.1 5.0 31 70
+ 1.66346 3 5 udp 1000 ------- 1 0.1 5.0 31 70
- 1.66346 3 5 udp 1000 ------- 1 0.1 5.0 31 70
- 1.66546 2 3 udp 449 ------- 1 0.1 5.0 34 79