V -t * -v 1.0a5 -a 0
A -t * -n 1 -p 0 -o 0x7fffffff -c 30 -a 1
A -t * -h 1 -m 1073741823 -s 0
c -t * -i 1 -n Blue
c -t * -i 2 -n Red
n -t * -a 4 -s 4 -S UP -v circle -c black -i black
n -t * -a 0 -s 0 -S UP -v circle -c black -i black
n -t * -a 5 -s 5 -S UP -v circle -c black -i black
n -t * -a 1 -s 1 -S UP -v circle -c black -i black
n -t * -a 2 -s 2 -S UP -v hexagon -c black -i black
n -t * -a 3 -s 3 -S UP -v square -c black -i black
l -t * -s 0 -d 2 -S UP -r 200000 -D 0.10000000000000001 -c black -o right-down
l -t * -s 1 -d 2 -S UP -r 500000 -D 0.10000000000000001 -c black -o right-up
l -t * -s 2 -d 3 -S UP -r 200000 -D 0.10000000000000001 -c black -o right
l -t * -s 3 -d 4 -S UP -r 200000 -D 0.10000000000000001 -c black -o right-up
l -t * -s 3 -d 5 -S UP -r 200000 -D 0.10000000000000001 -c black -o right-down
q -t * -s 2 -d 0 -a 0.5
q -t * -s 0 -d 2 -a 0.5
q -t * -s 2 -d 1 -a 0.5
q -t * -s 1 -d 2 -a 0.5
q -t * -s 2 -d 3 -a 0.5
n -t 0 -s 2 -S DLABEL -l "server" -L ""
n -t 0 -s 3 -S DLABEL -l "router" -L ""
n -t 0 -s 0 -S DLABEL -l "client" -L ""
n -t 0 -s 1 -S DLABEL -l "client" -L ""
n -t 0 -s 4 -S DLABEL -l "client" -L ""
n -t 0 -s 5 -S DLABEL -l "client" -L ""
+ -t 0.0001 -s 0 -d 2 -p udp -e 1000 -c 1 -i 0 -a 1 -x {0.1 5.0 0 ------- null}
- -t 0.0001 -s 0 -d 2 -p udp -e 1000 -c 1 -i 0 -a 1 -x {0.1 5.0 0 ------- null}
h -t 0.0001 -s 0 -d 2 -p udp -e 1000 -c 1 -i 0 -a 1 -x {0.1 5.0 -1 ------- null}
+ -t 0.0001 -s 0 -d 2 -p udp -e 1000 -c 1 -i 1 -a 1 -x {0.1 5.0 1 ------- null}
+ -t 0.0001 -s 0 -d 2 -p udp -e 1000 -c 1 -i 2 -a 1 -x {0.1 5.0 2 ------- null}
+ -t 0.0001 -s 0 -d 2 -p udp -e 994 -c 1 -i 3 -a 1 -x {0.1 5.0 3 ------- null}
- -t 0.0401 -s 0 -d 2 -p udp -e 1000 -c 1 -i 1 -a 1 -x {0.1 5.0 1 ------- null}
h -t 0.0401 -s 0 -d 2 -p udp -e 1000 -c 1 -i 1 -a 1 -x {0.1 5.0 -1 ------- null}
- -t 0.0801 -s 0 -d 2 -p udp -e 1000 -c 1 -i 2 -a 1 -x {0.1 5.0 2 ------- null}
h -t 0.0801 -s 0 -d 2 -p udp -e 1000 -c 1 -i 2 -a 1 -x {0.1 5.0 -1 ------- null}
- -t 0.1201 -s 0 -d 2 -p udp -e 994 -c 1 -i 3 -a 1 -x {0.1 5.0 3 ------- null}
h -t 0.1201 -s 0 -d 2 -p udp -e 994 -c 1 -i 3 -a 1 -x {0.1 5.0 -1 ------- null}
r -t 0.1401 -s 0 -d 2 -p udp -e 1000 -c 1 -i 0 -a 1 -x {0.1 5.0 0 ------- null}
+ -t 0.1401 -s 2 -d 3 -p udp -e 1000 -c 1 -i 0 -a 1 -x {0.1 5.0 0 ------- null}
- -t 0.1401 -s 2 -d 3 -p udp -e 1000 -c 1 -i 0 -a 1 -x {0.1 5.0 0 ------- null}
h -t 0.1401 -s 2 -d 3 -p udp -e 1000 -c 1 -i 0 -a 1 -x {0.1 5.0 -1 ------- null}
+ -t 0.1430144 -s 0 -d 2 -p udp -e 1000 -c 1 -i 4 -a 1 -x {0.0 4.0 0 ------- null}
+ -t 0.1430144 -s 0 -d 2 -p udp -e 1000 -c 1 -i 5 -a 1 -x {0.0 4.0 1 ------- null}
+ -t 0.1430144 -s 0 -d 2 -p udp -e 127 -c 1 -i 6 -a 1 -x {0.0 4.0 2 ------- null}
- -t 0.15986 -s 0 -d 2 -p udp -e 1000 -c 1 -i 4 -a 1 -x {0.0 4.0 0 ------- null}
h -t 0.15986 -s 0 -d 2 -p udp -e 1000 -c 1 -i 4 -a 1 -x {0.0 4.0 -1 ------- null}
+ -t 0.17723138 -s 0 -d 2 -p udp -e 409 -c 1 -i 7 -a 1 -x {0.1 5.0 4 ------- null}
+ -t 0.179287805 -s 0 -d 2 -p udp -e 581 -c 1 -i 8 -a 1 -x {0.1 5.0 5 ------- null}
r -t 0.1801 -s 0 -d 2 -p udp -e 1000 -c 1 -i 1 -a 1 -x {0.1 5.0 1 ------- null}
+ -t 0.1801 -s 2 -d 3 -p udp -e 1000 -c 1 -i 1 -a 1 -x {0.1 5.0 1 ------- null}
- -t 0.1801 -s 2 -d 3 -p udp -e 1000 -c 1 -i 1 -a 1 -x {0.1 5.0 1 ------- null}
h -t 0.1801 -s 2 -d 3 -p udp -e 1000 -c 1 -i 1 -a 1 -x {0.1 5.0 -1 ------- null}
+ -t 0.192310625 -s 0 -d 2 -p udp -e 725 -c 1 -i 9 -a 1 -x {0.1 5.0 6 ------- null}
- -t 0.19986 -s 0 -d 2 -p udp -e 1000 -c 1 -i 5 -a 1 -x {0.0 4.0 1 ------- null}
h -t 0.19986 -s 0 -d 2 -p udp -e 1000 -c 1 -i 5 -a 1 -x {0.0 4.0 -1 ------- null}
+ -t 0.219059075 -s 0 -d 2 -p udp -e 587 -c 1 -i 10 -a 1 -x {0.1 5.0 7 ------- null}
r -t 0.2201 -s 0 -d 2 -p udp -e 1000 -c 1 -i 2 -a 1 -x {0.1 5.0 2 ------- null}
+ -t 0.2201 -s 2 -d 3 -p udp -e 1000 -c 1 -i 2 -a 1 -x {0.1 5.0 2 ------- null}
- -t 0.2201 -s 2 -d 3 -p udp -e 1000 -c 1 -i 2 -a 1 -x {0.1 5.0 2 ------- null}
h -t 0.2201 -s 2 -d 3 -p udp -e 1000 -c 1 -i 2 -a 1 -x {0.1 5.0 -1 ------- null}
+ -t 0.223127428 -s 0 -d 2 -p udp -e 904 -c 1 -i 11 -a 1 -x {0.0 4.0 3 ------- null}
+ -t 0.231208974 -s 0 -d 2 -p udp -e 223 -c 1 -i 12 -a 1 -x {0.0 4.0 4 ------- null}
+ -t 0.235820646 -s 0 -d 2 -p udp -e 76 -c 1 -i 13 -a 1 -x {0.0 4.0 5 ------- null}
+ -t 0.23884305 -s 0 -d 2 -p udp -e 872 -c 1 -i 14 -a 1 -x {0.0 4.0 6 ------- null}
- -t 0.23986 -s 0 -d 2 -p udp -e 127 -c 1 -i 6 -a 1 -x {0.0 4.0 2 ------- null}
h -t 0.23986 -s 0 -d 2 -p udp -e 127 -c 1 -i 6 -a 1 -x {0.0 4.0 -1 ------- null}
- -t 0.24494 -s 0 -d 2 -p udp -e 409 -c 1 -i 7 -a 1 -x {0.1 5.0 4 ------- null}
h -t 0.24494 -s 0 -d 2 -p udp -e 409 -c 1 -i 7 -a 1 -x {0.1 5.0 -1 ------- null}
r -t 0.25986 -s 0 -d 2 -p udp -e 994 -c 1 -i 3 -a 1 -x {0.1 5.0 3 ------- null}
+ -t 0.25986 -s 2 -d 3 -p udp -e 994 -c 1 -i 3 -a 1 -x {0.1 5.0 3 ------- null}
- -t 0.2601 -s 2 -d 3 -p udp -e 994 -c 1 -i 3 -a 1 -x {0.1 5.0 3 ------- null}
h -t 0.2601 -s 2 -d 3 -p udp -e 994 -c 1 -i 3 -a 1 -x {0.1 5.0 -1 ------- null}
- -t 0.2613 -s 0 -d 2 -p udp -e 581 -c 1 -i 8 -a 1 -x {0.1 5.0 5 ------- null}
h -t 0.2613 -s 0 -d 2 -p udp -e 581 -c 1 -i 8 -a 1 -x {0.1 5.0 -1 ------- null}
+ -t 0.26262663 -s 0 -d 2 -p udp -e 107 -c 1 -i 15 -a 1 -x {0.0 4.0 7 ------- null}
+ -t 0.269350706 -s 0 -d 2 -p udp -e 677 -c 1 -i 16 -a 1 -x {0.0 4.0 8 ------- null}
+ -t 0.273929924 -s 0 -d 2 -p udp -e 328 -c 1 -i 17 -a 1 -x {0.0 4.0 9 ------- null}
+ -t 0.27761333 -s 0 -d 2 -p udp -e 184 -c 1 -i 18 -a 1 -x {0.1 5.0 8 ------- null}
r -t 0.2801 -s 2 -d 3 -p udp -e 1000 -c 1 -i 0 -a 1 -x {0.1 5.0 0 ------- null}
+ -t 0.2801 -s 3 -d 5 -p udp -e 1000 -c 1 -i 0 -a 1 -x {0.1 5.0 0 ------- null}
- -t 0.2801 -s 3 -d 5 -p udp -e 1000 -c 1 -i 0 -a 1 -x {0.1 5.0 0 ------- null}
h -t 0.2801 -s 3 -d 5 -p udp -e 1000 -c 1 -i 0 -a 1 -x {0.1 5.0 -1 ------- null}
- -t 0.28454 -s 0 -d 2 -p udp -e 725 -c 1 -i 9 -a 1 -x {0.1 5.0 6 ------- null}
h -t 0.28454 -s 0 -d 2 -p udp -e 725 -c 1 -i 9 -a 1 -x {0.1 5.0 -1 ------- null}
+ -t 0.29094805 -s 0 -d 2 -p udp -e 87 -c 1 -i 19 -a 1 -x {0.0 4.0 10 ------- null}
+ -t 0.298056268 -s 0 -d 2 -p udp -e 711 -c 1 -i 20 -a 1 -x {0.1 5.0 9 ------- null}
r -t 0.29986 -s 0 -d 2 -p udp -e 1000 -c 1 -i 4 -a 1 -x {0.0 4.0 0 ------- null}
+ -t 0.29986 -s 2 -d 3 -p udp -e 1000 -c 1 -i 4 -a 1 -x {0.0 4.0 0 ------- null}
- -t 0.29986 -s 2 -d 3 -p udp -e 1000 -c 1 -i 4 -a 1 -x {0.0 4.0 0 ------- null}
h -t 0.29986 -s 2 -d 3 -p udp -e 1000 -c 1 -i 4 -a 1 -x {0.0 4.0 -1 ------- null}
- -t 0.31354 -s 0 -d 2 -p udp -e 587 -c 1 -i 10 -a 1 -x {0.1 5.0 7 ------- null}
h -t 0.31354 -s 0 -d 2 -p udp -e 587 -c 1 -i 10 -a 1 -x {0.1 5.0 -1 ------- null}
r -t 0.3201 -s 2 -d 3 -p udp -e 1000 -c 1 -i 1 -a 1 -x {0.1 5.0 1 ------- null}
+ -t 0.3201 -s 3 -d 5 -p udp -e 1000 -c 1 -i 1 -a 1 -x {0.1 5.0 1 ------- null}
- -t 0.3201 -s 3 -d 5 -p udp -e 1000 -c 1 -i 1 -a 1 -x {0.1 5.0 1 ------- null}
h -t 0.3201 -s 3 -d 5 -p udp -e 1000 -c 1 -i 1 -a 1 -x {0.1 5.0 -1 ------- null}
+ -t 0.332891748 -s 0 -d 2 -p udp -e 195 -c 1 -i 21 -a 1 -x {0.1 5.0 10 ------- null}
+ -t 0.335722726 -s 0 -d 2 -p udp -e 50 -c 1 -i 22 -a 1 -x {0.0 4.0 11 ------- null}
- -t 0.33702 -s 0 -d 2 -p udp -e 904 -c 1 -i 11 -a 1 -x {0.0 4.0 3 ------- null}
h -t 0.33702 -s 0 -d 2 -p udp -e 904 -c 1 -i 11 -a 1 -x {0.0 4.0 -1 ------- null}
r -t 0.33986 -s 0 -d 2 -p udp -e 1000 -c 1 -i 5 -a 1 -x {0.0 4.0 1 ------- null}
+ -t 0.33986 -s 2 -d 3 -p udp -e 1000 -c 1 -i 5 -a 1 -x {0.0 4.0 1 ------- null}
- -t 0.33986 -s 2 -d 3 -p udp -e 1000 -c 1 -i 5 -a 1 -x {0.0 4.0 1 ------- null}
h -t 0.33986 -s 2 -d 3 -p udp -e 1000 -c 1 -i 5 -a 1 -x {0.0 4.0 -1 ------- null}
r -t 0.34494 -s 0 -d 2 -p udp -e 127 -c 1 -i 6 -a 1 -x {0.0 4.0 2 ------- null}
+ -t 0.34494 -s 2 -d 3 -p udp -e 127 -c 1 -i 6 -a 1 -x {0.0 4.0 2 ------- null}
+ -t 0.355627176 -s 0 -d 2 -p udp -e 1000 -c 1 -i 23 -a 1 -x {0.0 4.0 12 ------- null}
+ -t 0.355627176 -s 0 -d 2 -p udp -e 107 -c 1 -i 24 -a 1 -x {0.0 4.0 13 ------- null}
r -t 0.3601 -s 2 -d 3 -p udp -e 1000 -c 1 -i 2 -a 1 -x {0.1 5.0 2 ------- null}
+ -t 0.3601 -s 3 -d 5 -p udp -e 1000 -c 1 -i 2 -a 1 -x {0.1 5.0 2 ------- null}
- -t 0.3601 -s 3 -d 5 -p udp -e 1000 -c 1 -i 2 -a 1 -x {0.1 5.0 2 ------- null}
h -t 0.3601 -s 3 -d 5 -p udp -e 1000 -c 1 -i 2 -a 1 -x {0.1 5.0 -1 ------- null}
r -t 0.3613 -s 0 -d 2 -p udp -e 409 -c 1 -i 7 -a 1 -x {0.1 5.0 4 ------- null}
+ -t 0.3613 -s 2 -d 3 -p udp -e 409 -c 1 -i 7 -a 1 -x {0.1 5.0 4 ------- null}
- -t 0.37318 -s 0 -d 2 -p udp -e 223 -c 1 -i 12 -a 1 -x {0.0 4.0 4 ------- null}
h -t 0.37318 -s 0 -d 2 -p udp -e 223 -c 1 -i 12 -a 1 -x {0.0 4.0 -1 ------- null}
+ -t 0.376982086 -s 0 -d 2 -p udp -e 837 -c 1 -i 25 -a 1 -x {0.1 5.0 11 ------- null}
+ -t 0.3774368976 -s 0 -d 2 -p udp -e 28 -c 1 -i 26 -a 1 -x {0.1 5.0 12 ------- null}
- -t 0.37986 -s 2 -d 3 -p udp -e 127 -c 1 -i 6 -a 1 -x {0.0 4.0 2 ------- null}
h -t 0.37986 -s 2 -d 3 -p udp -e 127 -c 1 -i 6 -a 1 -x {0.0 4.0 -1 ------- null}
- -t 0.3821 -s 0 -d 2 -p udp -e 76 -c 1 -i 13 -a 1 -x {0.0 4.0 5 ------- null}
h -t 0.3821 -s 0 -d 2 -p udp -e 76 -c 1 -i 13 -a 1 -x {0.0 4.0 -1 ------- null}
+ -t 0.3821655086 -s 0 -d 2 -p udp -e 1000 -c 1 -i 27 -a 1 -x {0.0 4.0 14 ------- null}
+ -t 0.3821655086 -s 0 -d 2 -p udp -e 94 -c 1 -i 28 -a 1 -x {0.0 4.0 15 ------- null}
r -t 0.38454 -s 0 -d 2 -p udp -e 581 -c 1 -i 8 -a 1 -x {0.1 5.0 5 ------- null}
+ -t 0.38454 -s 2 -d 3 -p udp -e 581 -c 1 -i 8 -a 1 -x {0.1 5.0 5 ------- null}
- -t 0.38494 -s 2 -d 3 -p udp -e 409 -c 1 -i 7 -a 1 -x {0.1 5.0 4 ------- null}
h -t 0.38494 -s 2 -d 3 -p udp -e 409 -c 1 -i 7 -a 1 -x {0.1 5.0 -1 ------- null}
- -t 0.38514 -s 0 -d 2 -p udp -e 872 -c 1 -i 14 -a 1 -x {0.0 4.0 6 ------- null}
h -t 0.38514 -s 0 -d 2 -p udp -e 872 -c 1 -i 14 -a 1 -x {0.0 4.0 -1 ------- null}
r -t 0.39986 -s 2 -d 3 -p udp -e 994 -c 1 -i 3 -a 1 -x {0.1 5.0 3 ------- null}
+ -t 0.39986 -s 3 -d 5 -p udp -e 994 -c 1 -i 3 -a 1 -x {0.1 5.0 3 ------- null}
- -t 0.4001 -s 3 -d 5 -p udp -e 994 -c 1 -i 3 -a 1 -x {0.1 5.0 3 ------- null}
h -t 0.4001 -s 3 -d 5 -p udp -e 994 -c 1 -i 3 -a 1 -x {0.1 5.0 -1 ------- null}
- -t 0.4013 -s 2 -d 3 -p udp -e 581 -c 1 -i 8 -a 1 -x {0.1 5.0 5 ------- null}
h -t 0.4013 -s 2 -d 3 -p udp -e 581 -c 1 -i 8 -a 1 -x {0.1 5.0 -1 ------- null}
+ -t 0.4070345086 -s 0 -d 2 -p udp -e 1000 -c 1 -i 29 -a 1 -x {0.1 5.0 13 ------- null}
+ -t 0.4070345086 -s 0 -d 2 -p udp -e 1000 -c 1 -i 30 -a 1 -x {0.1 5.0 14 ------- null}
+ -t 0.4070345086 -s 0 -d 2 -p udp -e 264 -c 1 -i 31 -a 1 -x {0.1 5.0 15 ------- null}
+ -t 0.4126830946 -s 0 -d 2 -p udp -e 546 -c 1 -i 32 -a 1 -x {0.0 4.0 16 ------- null}
r -t 0.41354 -s 0 -d 2 -p udp -e 725 -c 1 -i 9 -a 1 -x {0.1 5.0 6 ------- null}
+ -t 0.41354 -s 2 -d 3 -p udp -e 725 -c 1 -i 9 -a 1 -x {0.1 5.0 6 ------- null}
+ -t 0.4182274666 -s 0 -d 2 -p udp -e 201 -c 1 -i 33 -a 1 -x {0.0 4.0 17 ------- null}
- -t 0.42002 -s 0 -d 2 -p udp -e 107 -c 1 -i 15 -a 1 -x {0.0 4.0 7 ------- null}
h -t 0.42002 -s 0 -d 2 -p udp -e 107 -c 1 -i 15 -a 1 -x {0.0 4.0 -1 ------- null}
r -t 0.4201 -s 3 -d 5 -p udp -e 1000 -c 1 -i 0 -a 1 -x {0.1 5.0 0 ------- null}
- -t 0.4243 -s 0 -d 2 -p udp -e 677 -c 1 -i 16 -a 1 -x {0.0 4.0 8 ------- null}
h -t 0.4243 -s 0 -d 2 -p udp -e 677 -c 1 -i 16 -a 1 -x {0.0 4.0 -1 ------- null}
- -t 0.42454 -s 2 -d 3 -p udp -e 725 -c 1 -i 9 -a 1 -x {0.1 5.0 6 ------- null}
h -t 0.42454 -s 2 -d 3 -p udp -e 725 -c 1 -i 9 -a 1 -x {0.1 5.0 -1 ------- null}
+ -t 0.4253498596 -s 0 -d 2 -p udp -e 179 -c 1 -i 34 -a 1 -x {0.1 5.0 16 ------- null}
r -t 0.43702 -s 0 -d 2 -p udp -e 587 -c 1 -i 10 -a 1 -x {0.1 5.0 7 ------- null}
+ -t 0.43702 -s 2 -d 3 -p udp -e 587 -c 1 -i 10 -a 1 -x {0.1 5.0 7 ------- null}
r -t 0.43986 -s 2 -d 3 -p udp -e 1000 -c 1 -i 4 -a 1 -x {0.0 4.0 0 ------- null}
+ -t 0.43986 -s 3 -d 4 -p udp -e 1000 -c 1 -i 4 -a 1 -x {0.0 4.0 0 ------- null}
- -t 0.43986 -s 3 -d 4 -p udp -e 1000 -c 1 -i 4 -a 1 -x {0.0 4.0 0 ------- null}
h -t 0.43986 -s 3 -d 4 -p udp -e 1000 -c 1 -i 4 -a 1 -x {0.0 4.0 -1 ------- null}
- -t 0.45138 -s 0 -d 2 -p udp -e 328 -c 1 -i 17 -a 1 -x {0.0 4.0 9 ------- null}
h -t 0.45138 -s 0 -d 2 -p udp -e 328 -c 1 -i 17 -a 1 -x {0.0 4.0 -1 ------- null}
- -t 0.45354 -s 2 -d 3 -p udp -e 587 -c 1 -i 10 -a 1 -x {0.1 5.0 7 ------- null}
h -t 0.45354 -s 2 -d 3 -p udp -e 587 -c 1 -i 10 -a 1 -x {0.1 5.0 -1 ------- null}
r -t 0.4601 -s 3 -d 5 -p udp -e 1000 -c 1 -i 1 -a 1 -x {0.1 5.0 1 ------- null}
- -t 0.4645 -s 0 -d 2 -p udp -e 184 -c 1 -i 18 -a 1 -x {0.1 5.0 8 ------- null}
h -t 0.4645 -s 0 -d 2 -p udp -e 184 -c 1 -i 18 -a 1 -x {0.1 5.0 -1 ------- null}
+ -t 0.4695894896 -s 0 -d 2 -p udp -e 66 -c 1 -i 35 -a 1 -x {0.0 4.0 18 ------- null}
- -t 0.47186 -s 0 -d 2 -p udp -e 87 -c 1 -i 19 -a 1 -x {0.0 4.0 10 ------- null}
h -t 0.47186 -s 0 -d 2 -p udp -e 87 -c 1 -i 19 -a 1 -x {0.0 4.0 -1 ------- null}
r -t 0.47318 -s 0 -d 2 -p udp -e 904 -c 1 -i 11 -a 1 -x {0.0 4.0 3 ------- null}
+ -t 0.47318 -s 2 -d 3 -p udp -e 904 -c 1 -i 11 -a 1 -x {0.0 4.0 3 ------- null}
- -t 0.47534 -s 0 -d 2 -p udp -e 711 -c 1 -i 20 -a 1 -x {0.1 5.0 9 ------- null}
h -t 0.47534 -s 0 -d 2 -p udp -e 711 -c 1 -i 20 -a 1 -x {0.1 5.0 -1 ------- null}
- -t 0.47702 -s 2 -d 3 -p udp -e 904 -c 1 -i 11 -a 1 -x {0.0 4.0 3 ------- null}
h -t 0.47702 -s 2 -d 3 -p udp -e 904 -c 1 -i 11 -a 1 -x {0.0 4.0 -1 ------- null}
r -t 0.47986 -s 2 -d 3 -p udp -e 1000 -c 1 -i 5 -a 1 -x {0.0 4.0 1 ------- null}
+ -t 0.47986 -s 3 -d 4 -p udp -e 1000 -c 1 -i 5 -a 1 -x {0.0 4.0 1 ------- null}
- -t 0.47986 -s 3 -d 4 -p udp -e 1000 -c 1 -i 5 -a 1 -x {0.0 4.0 1 ------- null}
h -t 0.47986 -s 3 -d 4 -p udp -e 1000 -c 1 -i 5 -a 1 -x {0.0 4.0 -1 ------- null}
r -t 0.4821 -s 0 -d 2 -p udp -e 223 -c 1 -i 12 -a 1 -x {0.0 4.0 4 ------- null}
+ -t 0.4821 -s 2 -d 3 -p udp -e 223 -c 1 -i 12 -a 1 -x {0.0 4.0 4 ------- null}
r -t 0.48494 -s 2 -d 3 -p udp -e 127 -c 1 -i 6 -a 1 -x {0.0 4.0 2 ------- null}
+ -t 0.48494 -s 3 -d 4 -p udp -e 127 -c 1 -i 6 -a 1 -x {0.0 4.0 2 ------- null}
r -t 0.48514 -s 0 -d 2 -p udp -e 76 -c 1 -i 13 -a 1 -x {0.0 4.0 5 ------- null}
+ -t 0.48514 -s 2 -d 3 -p udp -e 76 -c 1 -i 13 -a 1 -x {0.0 4.0 5 ------- null}
r -t 0.5001 -s 3 -d 5 -p udp -e 1000 -c 1 -i 2 -a 1 -x {0.1 5.0 2 ------- null}
r -t 0.5013 -s 2 -d 3 -p udp -e 409 -c 1 -i 7 -a 1 -x {0.1 5.0 4 ------- null}
+ -t 0.5013 -s 3 -d 5 -p udp -e 409 -c 1 -i 7 -a 1 -x {0.1 5.0 4 ------- null}
- -t 0.5013 -s 3 -d 5 -p udp -e 409 -c 1 -i 7 -a 1 -x {0.1 5.0 4 ------- null}
h -t 0.5013 -s 3 -d 5 -p udp -e 409 -c 1 -i 7 -a 1 -x {0.1 5.0 -1 ------- null}
- -t 0.50378 -s 0 -d 2 -p udp -e 195 -c 1 -i 21 -a 1 -x {0.1 5.0 10 ------- null}
h -t 0.50378 -s 0 -d 2 -p udp -e 195 -c 1 -i 21 -a 1 -x {0.1 5.0 -1 ------- null}
- -t 0.51158 -s 0 -d 2 -p udp -e 50 -c 1 -i 22 -a 1 -x {0.0 4.0 11 ------- null}
h -t 0.51158 -s 0 -d 2 -p udp -e 50 -c 1 -i 22 -a 1 -x {0.0 4.0 -1 ------- null}
- -t 0.51318 -s 2 -d 3 -p udp -e 223 -c 1 -i 12 -a 1 -x {0.0 4.0 4 ------- null}
h -t 0.51318 -s 2 -d 3 -p udp -e 223 -c 1 -i 12 -a 1 -x {0.0 4.0 -1 ------- null}
- -t 0.51358 -s 0 -d 2 -p udp -e 1000 -c 1 -i 23 -a 1 -x {0.0 4.0 12 ------- null}
h -t 0.51358 -s 0 -d 2 -p udp -e 1000 -c 1 -i 23 -a 1 -x {0.0 4.0 -1 ------- null}
- -t 0.51986 -s 3 -d 4 -p udp -e 127 -c 1 -i 6 -a 1 -x {0.0 4.0 2 ------- null}
h -t 0.51986 -s 3 -d 4 -p udp -e 127 -c 1 -i 6 -a 1 -x {0.0 4.0 -1 ------- null}
r -t 0.52002 -s 0 -d 2 -p udp -e 872 -c 1 -i 14 -a 1 -x {0.0 4.0 6 ------- null}
+ -t 0.52002 -s 2 -d 3 -p udp -e 872 -c 1 -i 14 -a 1 -x {0.0 4.0 6 ------- null}
- -t 0.5221 -s 2 -d 3 -p udp -e 76 -c 1 -i 13 -a 1 -x {0.0 4.0 5 ------- null}
h -t 0.5221 -s 2 -d 3 -p udp -e 76 -c 1 -i 13 -a 1 -x {0.0 4.0 -1 ------- null}
r -t 0.5243 -s 0 -d 2 -p udp -e 107 -c 1 -i 15 -a 1 -x {0.0 4.0 7 ------- null}
+ -t 0.5243 -s 2 -d 3 -p udp -e 107 -c 1 -i 15 -a 1 -x {0.0 4.0 7 ------- null}
r -t 0.52454 -s 2 -d 3 -p udp -e 581 -c 1 -i 8 -a 1 -x {0.1 5.0 5 ------- null}
+ -t 0.52454 -s 3 -d 5 -p udp -e 581 -c 1 -i 8 -a 1 -x {0.1 5.0 5 ------- null}
- -t 0.52454 -s 3 -d 5 -p udp -e 581 -c 1 -i 8 -a 1 -x {0.1 5.0 5 ------- null}
h -t 0.52454 -s 3 -d 5 -p udp -e 581 -c 1 -i 8 -a 1 -x {0.1 5.0 -1 ------- null}
- -t 0.52514 -s 2 -d 3 -p udp -e 872 -c 1 -i 14 -a 1 -x {0.0 4.0 6 ------- null}
h -t 0.52514 -s 2 -d 3 -p udp -e 872 -c 1 -i 14 -a 1 -x {0.0 4.0 -1 ------- null}
+ -t 0.5263065296 -s 0 -d 2 -p udp -e 295 -c 1 -i 36 -a 1 -x {0.0 4.0 19 ------- null}
r -t 0.53986 -s 3 -d 5 -p udp -e 994 -c 1 -i 3 -a 1 -x {0.1 5.0 3 ------- null}
+ -t 0.5472503796 -s 0 -d 2 -p udp -e 1000 -c 1 -i 37 -a 1 -x {0.0 4.0 20 ------- null}
+ -t 0.5472503796 -s 0 -d 2 -p udp -e 796 -c 1 -i 38 -a 1 -x {0.0 4.0 21 ------- null}
r -t 0.55138 -s 0 -d 2 -p udp -e 677 -c 1 -i 16 -a 1 -x {0.0 4.0 8 ------- null}
+ -t 0.55138 -s 2 -d 3 -p udp -e 677 -c 1 -i 16 -a 1 -x {0.0 4.0 8 ------- null}
+ -t 0.5515094446 -s 0 -d 2 -p udp -e 840 -c 1 -i 39 -a 1 -x {0.1 5.0 17 ------- null}
r -t 0.55354 -s 2 -d 3 -p udp -e 725 -c 1 -i 9 -a 1 -x {0.1 5.0 6 ------- null}
+ -t 0.55354 -s 3 -d 5 -p udp -e 725 -c 1 -i 9 -a 1 -x {0.1 5.0 6 ------- null}
- -t 0.55354 -s 3 -d 5 -p udp -e 725 -c 1 -i 9 -a 1 -x {0.1 5.0 6 ------- null}
h -t 0.55354 -s 3 -d 5 -p udp -e 725 -c 1 -i 9 -a 1 -x {0.1 5.0 -1 ------- null}
- -t 0.55358 -s 0 -d 2 -p udp -e 107 -c 1 -i 24 -a 1 -x {0.0 4.0 13 ------- null}
h -t 0.55358 -s 0 -d 2 -p udp -e 107 -c 1 -i 24 -a 1 -x {0.0 4.0 -1 ------- null}
- -t 0.55786 -s 0 -d 2 -p udp -e 837 -c 1 -i 25 -a 1 -x {0.1 5.0 11 ------- null}
h -t 0.55786 -s 0 -d 2 -p udp -e 837 -c 1 -i 25 -a 1 -x {0.1 5.0 -1 ------- null}
- -t 0.56002 -s 2 -d 3 -p udp -e 107 -c 1 -i 15 -a 1 -x {0.0 4.0 7 ------- null}
h -t 0.56002 -s 2 -d 3 -p udp -e 107 -c 1 -i 15 -a 1 -x {0.0 4.0 -1 ------- null}
- -t 0.5643 -s 2 -d 3 -p udp -e 677 -c 1 -i 16 -a 1 -x {0.0 4.0 8 ------- null}
h -t 0.5643 -s 2 -d 3 -p udp -e 677 -c 1 -i 16 -a 1 -x {0.0 4.0 -1 ------- null}
r -t 0.5645 -s 0 -d 2 -p udp -e 328 -c 1 -i 17 -a 1 -x {0.0 4.0 9 ------- null}
+ -t 0.5645 -s 2 -d 3 -p udp -e 328 -c 1 -i 17 -a 1 -x {0.0 4.0 9 ------- null}
r -t 0.57186 -s 0 -d 2 -p udp -e 184 -c 1 -i 18 -a 1 -x {0.1 5.0 8 ------- null}
+ -t 0.57186 -s 2 -d 3 -p udp -e 184 -c 1 -i 18 -a 1 -x {0.1 5.0 8 ------- null}
r -t 0.57534 -s 0 -d 2 -p udp -e 87 -c 1 -i 19 -a 1 -x {0.0 4.0 10 ------- null}
+ -t 0.57534 -s 2 -d 3 -p udp -e 87 -c 1 -i 19 -a 1 -x {0.0 4.0 10 ------- null}
r -t 0.57702 -s 2 -d 3 -p udp -e 587 -c 1 -i 10 -a 1 -x {0.1 5.0 7 ------- null}
+ -t 0.57702 -s 3 -d 5 -p udp -e 587 -c 1 -i 10 -a 1 -x {0.1 5.0 7 ------- null}
r -t 0.57986 -s 3 -d 4 -p udp -e 1000 -c 1 -i 4 -a 1 -x {0.0 4.0 0 ------- null}
- -t 0.58254 -s 3 -d 5 -p udp -e 587 -c 1 -i 10 -a 1 -x {0.1 5.0 7 ------- null}
h -t 0.58254 -s 3 -d 5 -p udp -e 587 -c 1 -i 10 -a 1 -x {0.1 5.0 -1 ------- null}
+ -t 0.5837207946 -s 0 -d 2 -p udp -e 27 -c 1 -i 40 -a 1 -x {0.1 5.0 18 ------- null}
- -t 0.59134 -s 0 -d 2 -p udp -e 28 -c 1 -i 26 -a 1 -x {0.1 5.0 12 ------- null}
h -t 0.59134 -s 0 -d 2 -p udp -e 28 -c 1 -i 26 -a 1 -x {0.1 5.0 -1 ------- null}
- -t 0.59138 -s 2 -d 3 -p udp -e 328 -c 1 -i 17 -a 1 -x {0.0 4.0 9 ------- null}
h -t 0.59138 -s 2 -d 3 -p udp -e 328 -c 1 -i 17 -a 1 -x {0.0 4.0 -1 ------- null}
- -t 0.59246 -s 0 -d 2 -p udp -e 1000 -c 1 -i 27 -a 1 -x {0.0 4.0 14 ------- null}
h -t 0.59246 -s 0 -d 2 -p udp -e 1000 -c 1 -i 27 -a 1 -x {0.0 4.0 -1 ------- null}
r -t 0.60378 -s 0 -d 2 -p udp -e 711 -c 1 -i 20 -a 1 -x {0.1 5.0 9 ------- null}
+ -t 0.60378 -s 2 -d 3 -p udp -e 711 -c 1 -i 20 -a 1 -x {0.1 5.0 9 ------- null}
- -t 0.6045 -s 2 -d 3 -p udp -e 184 -c 1 -i 18 -a 1 -x {0.1 5.0 8 ------- null}
h -t 0.6045 -s 2 -d 3 -p udp -e 184 -c 1 -i 18 -a 1 -x {0.1 5.0 -1 ------- null}
r -t 0.61158 -s 0 -d 2 -p udp -e 195 -c 1 -i 21 -a 1 -x {0.1 5.0 10 ------- null}
+ -t 0.61158 -s 2 -d 3 -p udp -e 195 -c 1 -i 21 -a 1 -x {0.1 5.0 10 ------- null}
- -t 0.61186 -s 2 -d 3 -p udp -e 87 -c 1 -i 19 -a 1 -x {0.0 4.0 10 ------- null}
h -t 0.61186 -s 2 -d 3 -p udp -e 87 -c 1 -i 19 -a 1 -x {0.0 4.0 -1 ------- null}
r -t 0.61318 -s 2 -d 3 -p udp -e 904 -c 1 -i 11 -a 1 -x {0.0 4.0 3 ------- null}
+ -t 0.61318 -s 3 -d 4 -p udp -e 904 -c 1 -i 11 -a 1 -x {0.0 4.0 3 ------- null}
- -t 0.61318 -s 3 -d 4 -p udp -e 904 -c 1 -i 11 -a 1 -x {0.0 4.0 3 ------- null}
h -t 0.61318 -s 3 -d 4 -p udp -e 904 -c 1 -i 11 -a 1 -x {0.0 4.0 -1 ------- null}
r -t 0.61358 -s 0 -d 2 -p udp -e 50 -c 1 -i 22 -a 1 -x {0.0 4.0 11 ------- null}
+ -t 0.61358 -s 2 -d 3 -p udp -e 50 -c 1 -i 22 -a 1 -x {0.0 4.0 11 ------- null}
- -t 0.61534 -s 2 -d 3 -p udp -e 711 -c 1 -i 20 -a 1 -x {0.1 5.0 9 ------- null}
h -t 0.61534 -s 2 -d 3 -p udp -e 711 -c 1 -i 20 -a 1 -x {0.1 5.0 -1 ------- null}
r -t 0.61766 -s 3 -d 5 -p udp -e 409 -c 1 -i 7 -a 1 -x {0.1 5.0 4 ------- null}
r -t 0.61986 -s 3 -d 4 -p udp -e 1000 -c 1 -i 5 -a 1 -x {0.0 4.0 1 ------- null}
r -t 0.6221 -s 2 -d 3 -p udp -e 223 -c 1 -i 12 -a 1 -x {0.0 4.0 4 ------- null}
+ -t 0.6221 -s 3 -d 4 -p udp -e 223 -c 1 -i 12 -a 1 -x {0.0 4.0 4 ------- null}
r -t 0.62494 -s 3 -d 4 -p udp -e 127 -c 1 -i 6 -a 1 -x {0.0 4.0 2 ------- null}
r -t 0.62514 -s 2 -d 3 -p udp -e 76 -c 1 -i 13 -a 1 -x {0.0 4.0 5 ------- null}
+ -t 0.62514 -s 3 -d 4 -p udp -e 76 -c 1 -i 13 -a 1 -x {0.0 4.0 5 ------- null}
- -t 0.63246 -s 0 -d 2 -p udp -e 94 -c 1 -i 28 -a 1 -x {0.0 4.0 15 ------- null}
h -t 0.63246 -s 0 -d 2 -p udp -e 94 -c 1 -i 28 -a 1 -x {0.0 4.0 -1 ------- null}
- -t 0.63622 -s 0 -d 2 -p udp -e 1000 -c 1 -i 29 -a 1 -x {0.1 5.0 13 ------- null}
h -t 0.63622 -s 0 -d 2 -p udp -e 1000 -c 1 -i 29 -a 1 -x {0.1 5.0 -1 ------- null}
+ -t 0.6388101846 -s 0 -d 2 -p udp -e 788 -c 1 -i 41 -a 1 -x {0.1 5.0 19 ------- null}
+ -t 0.63887685147 -s 0 -d 2 -p udp -e 861 -c 1 -i 42 -a 1 -x {0.1 5.0 20 ------- null}
- -t 0.64378 -s 2 -d 3 -p udp -e 195 -c 1 -i 21 -a 1 -x {0.1 5.0 10 ------- null}
h -t 0.64378 -s 2 -d 3 -p udp -e 195 -c 1 -i 21 -a 1 -x {0.1 5.0 -1 ------- null}
+ -t 0.64535665647 -s 0 -d 2 -p udp -e 1000 -c 1 -i 43 -a 1 -x {0.0 4.0 22 ------- null}
+ -t 0.64535665647 -s 0 -d 2 -p udp -e 196 -c 1 -i 44 -a 1 -x {0.0 4.0 23 ------- null}
r -t 0.64778 -s 3 -d 5 -p udp -e 581 -c 1 -i 8 -a 1 -x {0.1 5.0 5 ------- null}
- -t 0.64934 -s 3 -d 4 -p udp -e 223 -c 1 -i 12 -a 1 -x {0.0 4.0 4 ------- null}
h -t 0.64934 -s 3 -d 4 -p udp -e 223 -c 1 -i 12 -a 1 -x {0.0 4.0 -1 ------- null}
- -t 0.65158 -s 2 -d 3 -p udp -e 50 -c 1 -i 22 -a 1 -x {0.0 4.0 11 ------- null}
h -t 0.65158 -s 2 -d 3 -p udp -e 50 -c 1 -i 22 -a 1 -x {0.0 4.0 -1 ------- null}
r -t 0.65358 -s 0 -d 2 -p udp -e 1000 -c 1 -i 23 -a 1 -x {0.0 4.0 12 ------- null}
+ -t 0.65358 -s 2 -d 3 -p udp -e 1000 -c 1 -i 23 -a 1 -x {0.0 4.0 12 ------- null}
- -t 0.65358 -s 2 -d 3 -p udp -e 1000 -c 1 -i 23 -a 1 -x {0.0 4.0 12 ------- null}
h -t 0.65358 -s 2 -d 3 -p udp -e 1000 -c 1 -i 23 -a 1 -x {0.0 4.0 -1 ------- null}
r -t 0.65786 -s 0 -d 2 -p udp -e 107 -c 1 -i 24 -a 1 -x {0.0 4.0 13 ------- null}
+ -t 0.65786 -s 2 -d 3 -p udp -e 107 -c 1 -i 24 -a 1 -x {0.0 4.0 13 ------- null}
- -t 0.65826 -s 3 -d 4 -p udp -e 76 -c 1 -i 13 -a 1 -x {0.0 4.0 5 ------- null}
h -t 0.65826 -s 3 -d 4 -p udp -e 76 -c 1 -i 13 -a 1 -x {0.0 4.0 -1 ------- null}
r -t 0.66002 -s 2 -d 3 -p udp -e 872 -c 1 -i 14 -a 1 -x {0.0 4.0 6 ------- null}
+ -t 0.66002 -s 3 -d 4 -p udp -e 872 -c 1 -i 14 -a 1 -x {0.0 4.0 6 ------- null}
- -t 0.6613 -s 3 -d 4 -p udp -e 872 -c 1 -i 14 -a 1 -x {0.0 4.0 6 ------- null}
h -t 0.6613 -s 3 -d 4 -p udp -e 872 -c 1 -i 14 -a 1 -x {0.0 4.0 -1 ------- null}
r -t 0.6643 -s 2 -d 3 -p udp -e 107 -c 1 -i 15 -a 1 -x {0.0 4.0 7 ------- null}
+ -t 0.6643 -s 3 -d 4 -p udp -e 107 -c 1 -i 15 -a 1 -x {0.0 4.0 7 ------- null}
+ -t 0.66433667647 -s 0 -d 2 -p udp -e 1000 -c 1 -i 45 -a 1 -x {0.1 5.0 21 ------- null}
+ -t 0.66433667647 -s 0 -d 2 -p udp -e 497 -c 1 -i 46 -a 1 -x {0.1 5.0 22 ------- null}
- -t 0.67622 -s 0 -d 2 -p udp -e 1000 -c 1 -i 30 -a 1 -x {0.1 5.0 14 ------- null}
h -t 0.67622 -s 0 -d 2 -p udp -e 1000 -c 1 -i 30 -a 1 -x {0.1 5.0 -1 ------- null}
r -t 0.68254 -s 3 -d 5 -p udp -e 725 -c 1 -i 9 -a 1 -x {0.1 5.0 6 ------- null}
r -t 0.69134 -s 0 -d 2 -p udp -e 837 -c 1 -i 25 -a 1 -x {0.1 5.0 11 ------- null}
+ -t 0.69134 -s 2 -d 3 -p udp -e 837 -c 1 -i 25 -a 1 -x {0.1 5.0 11 ------- null}
r -t 0.69138 -s 2 -d 3 -p udp -e 677 -c 1 -i 16 -a 1 -x {0.0 4.0 8 ------- null}
+ -t 0.69138 -s 3 -d 4 -p udp -e 677 -c 1 -i 16 -a 1 -x {0.0 4.0 8 ------- null}
r -t 0.69246 -s 0 -d 2 -p udp -e 28 -c 1 -i 26 -a 1 -x {0.1 5.0 12 ------- null}
+ -t 0.69246 -s 2 -d 3 -p udp -e 28 -c 1 -i 26 -a 1 -x {0.1 5.0 12 ------- null}
- -t 0.69358 -s 2 -d 3 -p udp -e 107 -c 1 -i 24 -a 1 -x {0.0 4.0 13 ------- null}
h -t 0.69358 -s 2 -d 3 -p udp -e 107 -c 1 -i 24 -a 1 -x {0.0 4.0 -1 ------- null}
- -t 0.69618 -s 3 -d 4 -p udp -e 107 -c 1 -i 15 -a 1 -x {0.0 4.0 7 ------- null}
h -t 0.69618 -s 3 -d 4 -p udp -e 107 -c 1 -i 15 -a 1 -x {0.0 4.0 -1 ------- null}
- -t 0.69786 -s 2 -d 3 -p udp -e 837 -c 1 -i 25 -a 1 -x {0.1 5.0 11 ------- null}
h -t 0.69786 -s 2 -d 3 -p udp -e 837 -c 1 -i 25 -a 1 -x {0.1 5.0 -1 ------- null}
- -t 0.70046 -s 3 -d 4 -p udp -e 677 -c 1 -i 16 -a 1 -x {0.0 4.0 8 ------- null}
h -t 0.70046 -s 3 -d 4 -p udp -e 677 -c 1 -i 16 -a 1 -x {0.0 4.0 -1 ------- null}
r -t 0.7045 -s 2 -d 3 -p udp -e 328 -c 1 -i 17 -a 1 -x {0.0 4.0 9 ------- null}
+ -t 0.7045 -s 3 -d 4 -p udp -e 328 -c 1 -i 17 -a 1 -x {0.0 4.0 9 ------- null}
r -t 0.70602 -s 3 -d 5 -p udp -e 587 -c 1 -i 10 -a 1 -x {0.1 5.0 7 ------- null}
r -t 0.71186 -s 2 -d 3 -p udp -e 184 -c 1 -i 18 -a 1 -x {0.1 5.0 8 ------- null}
+ -t 0.71186 -s 3 -d 5 -p udp -e 184 -c 1 -i 18 -a 1 -x {0.1 5.0 8 ------- null}
- -t 0.71186 -s 3 -d 5 -p udp -e 184 -c 1 -i 18 -a 1 -x {0.1 5.0 8 ------- null}
h -t 0.71186 -s 3 -d 5 -p udp -e 184 -c 1 -i 18 -a 1 -x {0.1 5.0 -1 ------- null}
r -t 0.71534 -s 2 -d 3 -p udp -e 87 -c 1 -i 19 -a 1 -x {0.0 4.0 10 ------- null}
+ -t 0.71534 -s 3 -d 4 -p udp -e 87 -c 1 -i 19 -a 1 -x {0.0 4.0 10 ------- null}
- -t 0.71622 -s 0 -d 2 -p udp -e 264 -c 1 -i 31 -a 1 -x {0.1 5.0 15 ------- null}
h -t 0.71622 -s 0 -d 2 -p udp -e 264 -c 1 -i 31 -a 1 -x {0.1 5.0 -1 ------- null}
+ -t 0.71705429647 -s 0 -d 2 -p udp -e 315 -c 1 -i 47 -a 1 -x {0.1 5.0 23 ------- null}
- -t 0.72678 -s 0 -d 2 -p udp -e 546 -c 1 -i 32 -a 1 -x {0.0 4.0 16 ------- null}
h -t 0.72678 -s 0 -d 2 -p udp -e 546 -c 1 -i 32 -a 1 -x {0.0 4.0 -1 ------- null}
- -t 0.72754 -s 3 -d 4 -p udp -e 328 -c 1 -i 17 -a 1 -x {0.0 4.0 9 ------- null}
h -t 0.72754 -s 3 -d 4 -p udp -e 328 -c 1 -i 17 -a 1 -x {0.0 4.0 -1 ------- null}
- -t 0.73134 -s 2 -d 3 -p udp -e 28 -c 1 -i 26 -a 1 -x {0.1 5.0 12 ------- null}
h -t 0.73134 -s 2 -d 3 -p udp -e 28 -c 1 -i 26 -a 1 -x {0.1 5.0 -1 ------- null}
r -t 0.73246 -s 0 -d 2 -p udp -e 1000 -c 1 -i 27 -a 1 -x {0.0 4.0 14 ------- null}
+ -t 0.73246 -s 2 -d 3 -p udp -e 1000 -c 1 -i 27 -a 1 -x {0.0 4.0 14 ------- null}
- -t 0.73246 -s 2 -d 3 -p udp -e 1000 -c 1 -i 27 -a 1 -x {0.0 4.0 14 ------- null}
h -t 0.73246 -s 2 -d 3 -p udp -e 1000 -c 1 -i 27 -a 1 -x {0.0 4.0 -1 ------- null}
r -t 0.73622 -s 0 -d 2 -p udp -e 94 -c 1 -i 28 -a 1 -x {0.0 4.0 15 ------- null}
+ -t 0.73622 -s 2 -d 3 -p udp -e 94 -c 1 -i 28 -a 1 -x {0.0 4.0 15 ------- null}
+ -t 0.73773251647 -s 0 -d 2 -p udp -e 432 -c 1 -i 48 -a 1 -x {0.0 4.0 24 ------- null}
- -t 0.74066 -s 3 -d 4 -p udp -e 87 -c 1 -i 19 -a 1 -x {0.0 4.0 10 ------- null}
h -t 0.74066 -s 3 -d 4 -p udp -e 87 -c 1 -i 19 -a 1 -x {0.0 4.0 -1 ------- null}
+ -t 0.74252313347 -s 0 -d 2 -p udp -e 103 -c 1 -i 49 -a 1 -x {0.1 5.0 24 ------- null}
r -t 0.74378 -s 2 -d 3 -p udp -e 711 -c 1 -i 20 -a 1 -x {0.1 5.0 9 ------- null}
+ -t 0.74378 -s 3 -d 5 -p udp -e 711 -c 1 -i 20 -a 1 -x {0.1 5.0 9 ------- null}
- -t 0.74378 -s 3 -d 5 -p udp -e 711 -c 1 -i 20 -a 1 -x {0.1 5.0 9 ------- null}
h -t 0.74378 -s 3 -d 5 -p udp -e 711 -c 1 -i 20 -a 1 -x {0.1 5.0 -1 ------- null}
+ -t 0.74596687547 -s 0 -d 2 -p udp -e 159 -c 1 -i 50 -a 1 -x {0.1 5.0 25 ------- null}
- -t 0.74862 -s 0 -d 2 -p udp -e 201 -c 1 -i 33 -a 1 -x {0.0 4.0 17 ------- null}
h -t 0.74862 -s 0 -d 2 -p udp -e 201 -c 1 -i 33 -a 1 -x {0.0 4.0 -1 ------- null}
r -t 0.74934 -s 3 -d 4 -p udp -e 904 -c 1 -i 11 -a 1 -x {0.0 4.0 3 ------- null}
+ -t 0.75135277347 -s 0 -d 2 -p udp -e 267 -c 1 -i 51 -a 1 -x {0.1 5.0 26 ------- null}
r -t 0.75158 -s 2 -d 3 -p udp -e 195 -c 1 -i 21 -a 1 -x {0.1 5.0 10 ------- null}
+ -t 0.75158 -s 3 -d 5 -p udp -e 195 -c 1 -i 21 -a 1 -x {0.1 5.0 10 ------- null}
+ -t 0.75335870547 -s 0 -d 2 -p udp -e 110 -c 1 -i 52 -a 1 -x {0.0 4.0 25 ------- null}
r -t 0.75358 -s 2 -d 3 -p udp -e 50 -c 1 -i 22 -a 1 -x {0.0 4.0 11 ------- null}
+ -t 0.75358 -s 3 -d 4 -p udp -e 50 -c 1 -i 22 -a 1 -x {0.0 4.0 11 ------- null}
- -t 0.75358 -s 3 -d 4 -p udp -e 50 -c 1 -i 22 -a 1 -x {0.0 4.0 11 ------- null}
h -t 0.75358 -s 3 -d 4 -p udp -e 50 -c 1 -i 22 -a 1 -x {0.0 4.0 -1 ------- null}
- -t 0.75666 -s 0 -d 2 -p udp -e 179 -c 1 -i 34 -a 1 -x {0.1 5.0 16 ------- null}
h -t 0.75666 -s 0 -d 2 -p udp -e 179 -c 1 -i 34 -a 1 -x {0.1 5.0 -1 ------- null}
r -t 0.75826 -s 3 -d 4 -p udp -e 223 -c 1 -i 12 -a 1 -x {0.0 4.0 4 ------- null}
r -t 0.7613 -s 3 -d 4 -p udp -e 76 -c 1 -i 13 -a 1 -x {0.0 4.0 5 ------- null}
+ -t 0.76376861547 -s 0 -d 2 -p udp -e 291 -c 1 -i 53 -a 1 -x {0.1 5.0 27 ------- null}
- -t 0.76382 -s 0 -d 2 -p udp -e 66 -c 1 -i 35 -a 1 -x {0.0 4.0 18 ------- null}
h -t 0.76382 -s 0 -d 2 -p udp -e 66 -c 1 -i 35 -a 1 -x {0.0 4.0 -1 ------- null}
- -t 0.76646 -s 0 -d 2 -p udp -e 295 -c 1 -i 36 -a 1 -x {0.0 4.0 19 ------- null}
h -t 0.76646 -s 0 -d 2 -p udp -e 295 -c 1 -i 36 -a 1 -x {0.0 4.0 -1 ------- null}
+ -t 0.77031107647 -s 0 -d 2 -p udp -e 122 -c 1 -i 54 -a 1 -x {0.1 5.0 28 ------- null}
- -t 0.77222 -s 3 -d 5 -p udp -e 195 -c 1 -i 21 -a 1 -x {0.1 5.0 10 ------- null}
h -t 0.77222 -s 3 -d 5 -p udp -e 195 -c 1 -i 21 -a 1 -x {0.1 5.0 -1 ------- null}
- -t 0.77246 -s 2 -d 3 -p udp -e 94 -c 1 -i 28 -a 1 -x {0.0 4.0 15 ------- null}
h -t 0.77246 -s 2 -d 3 -p udp -e 94 -c 1 -i 28 -a 1 -x {0.0 4.0 -1 ------- null}
r -t 0.77622 -s 0 -d 2 -p udp -e 1000 -c 1 -i 29 -a 1 -x {0.1 5.0 13 ------- null}