+ 0.0001 0 2 udp 294 ------- 1 0.0 4.0 0 0
- 0.0001 0 2 udp 294 ------- 1 0.0 4.0 0 0
r 0.104804 0 2 udp 294 ------- 1 0.0 4.0 0 0
+ 0.104804 2 3 udp 294 ------- 1 0.0 4.0 0 0
- 0.104804 2 3 udp 294 ------- 1 0.0 4.0 0 0
+ 0.159856 0 2 udp 409 ------- 1 0.1 5.0 0 1
- 0.159856 0 2 udp 409 ------- 1 0.1 5.0 0 1
+ 0.208437 0 2 udp 101 ------- 1 0.0 4.0 1 2
- 0.208437 0 2 udp 101 ------- 1 0.0 4.0 1 2
r 0.212644 2 3 udp 294 ------- 1 0.0 4.0 0 0
+ 0.212644 3 4 udp 294 ------- 1 0.0 4.0 0 0
- 0.212644 3 4 udp 294 ------- 1 0.0 4.0 0 0
+ 0.23167 0 2 udp 587 ------- 1 0.1 5.0 1 3
- 0.23167 0 2 udp 587 ------- 1 0.1 5.0 1 3
+ 0.240631 0 2 udp 1000 ------- 1 0.1 5.0 2 4
+ 0.240631 0 2 udp 576 ------- 1 0.1 5.0 3 5
- 0.241062 0 2 udp 1000 ------- 1 0.1 5.0 2 4
- 0.257062 0 2 udp 576 ------- 1 0.1 5.0 3 5
r 0.2664 0 2 udp 409 ------- 1 0.1 5.0 0 1
+ 0.2664 2 3 udp 409 ------- 1 0.1 5.0 0 1
- 0.2664 2 3 udp 409 ------- 1 0.1 5.0 0 1
+ 0.276771 0 2 udp 76 ------- 1 0.0 4.0 2 6
- 0.276771 0 2 udp 76 ------- 1 0.0 4.0 2 6
r 0.310053 0 2 udp 101 ------- 1 0.0 4.0 1 2
+ 0.310053 2 3 udp 101 ------- 1 0.0 4.0 1 2
- 0.310053 2 3 udp 101 ------- 1 0.0 4.0 1 2
+ 0.320236 0 2 udp 1000 ------- 1 0.1 5.0 4 7
- 0.320236 0 2 udp 1000 ------- 1 0.1 5.0 4 7
+ 0.320236 0 2 udp 181 ------- 1 0.1 5.0 5 8
r 0.324404 3 4 udp 294 ------- 1 0.0 4.0 0 0
- 0.336236 0 2 udp 181 ------- 1 0.1 5.0 5 8
r 0.341062 0 2 udp 587 ------- 1 0.1 5.0 1 3
+ 0.341062 2 3 udp 587 ------- 1 0.1 5.0 1 3
- 0.341062 2 3 udp 587 ------- 1 0.1 5.0 1 3
+ 0.355118 0 2 udp 677 ------- 1 0.0 4.0 3 9
- 0.355118 0 2 udp 677 ------- 1 0.0 4.0 3 9
r 0.357062 0 2 udp 1000 ------- 1 0.1 5.0 2 4
+ 0.357062 2 3 udp 1000 ------- 1 0.1 5.0 2 4
- 0.357062 2 3 udp 1000 ------- 1 0.1 5.0 2 4
r 0.366278 0 2 udp 576 ------- 1 0.1 5.0 3 5
+ 0.366278 2 3 udp 576 ------- 1 0.1 5.0 3 5
+ 0.376186 0 2 udp 382 ------- 1 0.1 5.0 6 10
- 0.376186 0 2 udp 382 ------- 1 0.1 5.0 6 10
r 0.377307 2 3 udp 409 ------- 1 0.1 5.0 0 1
+ 0.377307 3 5 udp 409 ------- 1 0.1 5.0 0 1
- 0.377307 3 5 udp 409 ------- 1 0.1 5.0 0 1
r 0.377987 0 2 udp 76 ------- 1 0.0 4.0 2 6
+ 0.377987 2 3 udp 76 ------- 1 0.0 4.0 2 6
- 0.383729 2 3 udp 576 ------- 1 0.1 5.0 3 5
+ 0.389317 0 2 udp 87 ------- 1 0.0 4.0 4 11
- 0.389317 0 2 udp 87 ------- 1 0.0 4.0 4 11
+ 0.392285 0 2 udp 81 ------- 1 0.1 5.0 7 12
- 0.392285 0 2 udp 81 ------- 1 0.1 5.0 7 12
- 0.399089 2 3 udp 76 ------- 1 0.0 4.0 2 6
r 0.412746 2 3 udp 101 ------- 1 0.0 4.0 1 2
+ 0.412746 3 4 udp 101 ------- 1 0.0 4.0 1 2
- 0.412746 3 4 udp 101 ------- 1 0.0 4.0 1 2
+ 0.420726 0 2 udp 50 ------- 1 0.0 4.0 5 13
- 0.420726 0 2 udp 50 ------- 1 0.0 4.0 5 13
+ 0.426156 0 2 udp 453 ------- 1 0.0 4.0 6 14
- 0.426156 0 2 udp 453 ------- 1 0.0 4.0 6 14
r 0.436236 0 2 udp 1000 ------- 1 0.1 5.0 4 7
+ 0.436236 2 3 udp 1000 ------- 1 0.1 5.0 4 7
- 0.436236 2 3 udp 1000 ------- 1 0.1 5.0 4 7
r 0.439132 0 2 udp 181 ------- 1 0.1 5.0 5 8
+ 0.439132 2 3 udp 181 ------- 1 0.1 5.0 5 8
r 0.456716 2 3 udp 587 ------- 1 0.1 5.0 1 3
+ 0.456716 3 5 udp 587 ------- 1 0.1 5.0 1 3
- 0.456716 3 5 udp 587 ------- 1 0.1 5.0 1 3
- 0.462903 2 3 udp 181 ------- 1 0.1 5.0 5 8
r 0.46595 0 2 udp 677 ------- 1 0.0 4.0 3 9
+ 0.46595 2 3 udp 677 ------- 1 0.0 4.0 3 9
- 0.46773 2 3 udp 677 ------- 1 0.0 4.0 3 9
+ 0.470448 0 2 udp 28 ------- 1 0.1 5.0 8 15
- 0.470448 0 2 udp 28 ------- 1 0.1 5.0 8 15
+ 0.472836 0 2 udp 1000 ------- 1 0.0 4.0 7 16
- 0.472836 0 2 udp 1000 ------- 1 0.0 4.0 7 16
+ 0.472836 0 2 udp 420 ------- 1 0.0 4.0 8 17
r 0.482298 0 2 udp 382 ------- 1 0.1 5.0 6 10
+ 0.482298 2 3 udp 382 ------- 1 0.1 5.0 6 10
r 0.483729 2 3 udp 1000 ------- 1 0.1 5.0 2 4
+ 0.483729 3 5 udp 1000 ------- 1 0.1 5.0 2 4
- 0.483729 3 5 udp 1000 ------- 1 0.1 5.0 2 4
- 0.485783 2 3 udp 382 ------- 1 0.1 5.0 6 10
- 0.488836 0 2 udp 420 ------- 1 0.0 4.0 8 17
r 0.490709 0 2 udp 87 ------- 1 0.0 4.0 4 11
+ 0.490709 2 3 udp 87 ------- 1 0.0 4.0 4 11
r 0.493581 0 2 udp 81 ------- 1 0.1 5.0 7 12
+ 0.493581 2 3 udp 81 ------- 1 0.1 5.0 7 12
r 0.493667 3 5 udp 409 ------- 1 0.1 5.0 0 1
- 0.49597 2 3 udp 87 ------- 1 0.0 4.0 4 11
- 0.49829 2 3 udp 81 ------- 1 0.1 5.0 7 12
r 0.499089 2 3 udp 576 ------- 1 0.1 5.0 3 5
+ 0.499089 3 5 udp 576 ------- 1 0.1 5.0 3 5
r 0.501116 2 3 udp 76 ------- 1 0.0 4.0 2 6
+ 0.501116 3 4 udp 76 ------- 1 0.0 4.0 2 6
- 0.501116 3 4 udp 76 ------- 1 0.0 4.0 2 6
+ 0.516616 0 2 udp 546 ------- 1 0.0 4.0 9 18
- 0.516616 0 2 udp 546 ------- 1 0.0 4.0 9 18
r 0.516786 3 4 udp 101 ------- 1 0.0 4.0 1 2
r 0.521526 0 2 udp 50 ------- 1 0.0 4.0 5 13
+ 0.521526 2 3 udp 50 ------- 1 0.0 4.0 5 13
- 0.521526 2 3 udp 50 ------- 1 0.0 4.0 5 13
- 0.523729 3 5 udp 576 ------- 1 0.1 5.0 3 5
+ 0.526998 0 2 udp 679 ------- 1 0.1 5.0 9 19
- 0.526998 0 2 udp 679 ------- 1 0.1 5.0 9 19
r 0.533404 0 2 udp 453 ------- 1 0.0 4.0 6 14
+ 0.533404 2 3 udp 453 ------- 1 0.0 4.0 6 14
- 0.533404 2 3 udp 453 ------- 1 0.0 4.0 6 14
+ 0.535049 0 2 udp 66 ------- 1 0.0 4.0 10 20
- 0.537862 0 2 udp 66 ------- 1 0.0 4.0 10 20
+ 0.547195 0 2 udp 427 ------- 1 0.0 4.0 11 21
- 0.547195 0 2 udp 427 ------- 1 0.0 4.0 11 21
+ 0.558977 0 2 udp 840 ------- 1 0.1 5.0 10 22
- 0.558977 0 2 udp 840 ------- 1 0.1 5.0 10 22
r 0.562903 2 3 udp 1000 ------- 1 0.1 5.0 4 7
+ 0.562903 3 5 udp 1000 ------- 1 0.1 5.0 4 7
- 0.562903 3 5 udp 1000 ------- 1 0.1 5.0 4 7
r 0.56773 2 3 udp 181 ------- 1 0.1 5.0 5 8
+ 0.56773 3 5 udp 181 ------- 1 0.1 5.0 5 8
r 0.570896 0 2 udp 28 ------- 1 0.1 5.0 8 15
+ 0.570896 2 3 udp 28 ------- 1 0.1 5.0 8 15
- 0.570896 2 3 udp 28 ------- 1 0.1 5.0 8 15
r 0.580196 3 5 udp 587 ------- 1 0.1 5.0 1 3
+ 0.581313 0 2 udp 129 ------- 1 0.0 4.0 12 23
- 0.581313 0 2 udp 129 ------- 1 0.0 4.0 12 23
+ 0.582406 0 2 udp 861 ------- 1 0.1 5.0 11 24
- 0.583377 0 2 udp 861 ------- 1 0.1 5.0 11 24
r 0.585783 2 3 udp 677 ------- 1 0.0 4.0 3 9
+ 0.585783 3 4 udp 677 ------- 1 0.0 4.0 3 9
- 0.585783 3 4 udp 677 ------- 1 0.0 4.0 3 9
r 0.588836 0 2 udp 1000 ------- 1 0.0 4.0 7 16
+ 0.588836 2 3 udp 1000 ------- 1 0.0 4.0 7 16
- 0.588836 2 3 udp 1000 ------- 1 0.0 4.0 7 16
+ 0.589685 0 2 udp 355 ------- 1 0.0 4.0 13 25
r 0.595556 0 2 udp 420 ------- 1 0.0 4.0 8 17
+ 0.595556 2 3 udp 420 ------- 1 0.0 4.0 8 17
r 0.59597 2 3 udp 382 ------- 1 0.1 5.0 6 10
+ 0.59597 3 5 udp 382 ------- 1 0.1 5.0 6 10
- 0.597153 0 2 udp 355 ------- 1 0.0 4.0 13 25
r 0.59829 2 3 udp 87 ------- 1 0.0 4.0 4 11
+ 0.59829 3 4 udp 87 ------- 1 0.0 4.0 4 11
r 0.60045 2 3 udp 81 ------- 1 0.1 5.0 7 12
+ 0.60045 3 5 udp 81 ------- 1 0.1 5.0 7 12
- 0.602903 3 5 udp 181 ------- 1 0.1 5.0 5 8
r 0.604156 3 4 udp 76 ------- 1 0.0 4.0 2 6
- 0.610143 3 5 udp 382 ------- 1 0.1 5.0 6 10
- 0.612863 3 4 udp 87 ------- 1 0.0 4.0 4 11
- 0.615503 2 3 udp 420 ------- 1 0.0 4.0 8 17
r 0.622859 2 3 udp 50 ------- 1 0.0 4.0 5 13
+ 0.622859 3 4 udp 50 ------- 1 0.0 4.0 5 13
- 0.622859 3 4 udp 50 ------- 1 0.0 4.0 5 13
r 0.623729 3 5 udp 1000 ------- 1 0.1 5.0 2 4
r 0.625352 0 2 udp 546 ------- 1 0.0 4.0 9 18
+ 0.625352 2 3 udp 546 ------- 1 0.0 4.0 9 18
- 0.625423 3 5 udp 81 ------- 1 0.1 5.0 7 12
- 0.626703 2 3 udp 546 ------- 1 0.0 4.0 9 18
+ 0.637544 0 2 udp 315 ------- 1 0.1 5.0 12 26
- 0.637544 0 2 udp 315 ------- 1 0.1 5.0 12 26
r 0.637862 0 2 udp 679 ------- 1 0.1 5.0 9 19
+ 0.637862 2 3 udp 679 ------- 1 0.1 5.0 9 19
r 0.638918 0 2 udp 66 ------- 1 0.0 4.0 10 20
+ 0.638918 2 3 udp 66 ------- 1 0.0 4.0 10 20
+ 0.640442 0 2 udp 1000 ------- 1 0.1 5.0 13 27
+ 0.640442 0 2 udp 214 ------- 1 0.1 5.0 14 28
- 0.641263 2 3 udp 679 ------- 1 0.1 5.0 9 19
- 0.642584 0 2 udp 1000 ------- 1 0.1 5.0 13 27
r 0.645484 2 3 udp 453 ------- 1 0.0 4.0 6 14
+ 0.645484 3 4 udp 453 ------- 1 0.0 4.0 6 14
- 0.645484 3 4 udp 453 ------- 1 0.0 4.0 6 14
r 0.646769 3 5 udp 576 ------- 1 0.1 5.0 3 5
r 0.654027 0 2 udp 427 ------- 1 0.0 4.0 11 21
+ 0.654027 2 3 udp 427 ------- 1 0.0 4.0 11 21
+ 0.657734 0 2 udp 159 ------- 1 0.1 5.0 15 29
- 0.658584 0 2 udp 214 ------- 1 0.1 5.0 14 28
- 0.659369 2 3 udp 66 ------- 1 0.0 4.0 10 20
+ 0.659779 0 2 udp 153 ------- 1 0.1 5.0 16 30
- 0.661129 2 3 udp 427 ------- 1 0.0 4.0 11 21
- 0.662008 0 2 udp 159 ------- 1 0.1 5.0 15 29
- 0.664552 0 2 udp 153 ------- 1 0.1 5.0 16 30
+ 0.670463 0 2 udp 291 ------- 1 0.1 5.0 17 31
- 0.670463 0 2 udp 291 ------- 1 0.1 5.0 17 31
r 0.671642 2 3 udp 28 ------- 1 0.1 5.0 8 15
+ 0.671642 3 5 udp 28 ------- 1 0.1 5.0 8 15
- 0.671642 3 5 udp 28 ------- 1 0.1 5.0 8 15
r 0.672417 0 2 udp 840 ------- 1 0.1 5.0 10 22
+ 0.672417 2 3 udp 840 ------- 1 0.1 5.0 10 22
- 0.672516 2 3 udp 840 ------- 1 0.1 5.0 10 22
r 0.683377 0 2 udp 129 ------- 1 0.0 4.0 12 23
+ 0.683377 2 3 udp 129 ------- 1 0.0 4.0 12 23
+ 0.691117 0 2 udp 205 ------- 1 0.0 4.0 14 32
- 0.691117 0 2 udp 205 ------- 1 0.0 4.0 14 32
- 0.694916 2 3 udp 129 ------- 1 0.0 4.0 12 23
+ 0.695989 0 2 udp 302 ------- 1 0.0 4.0 15 33
- 0.695989 0 2 udp 302 ------- 1 0.0 4.0 15 33
r 0.697153 0 2 udp 861 ------- 1 0.1 5.0 11 24
+ 0.697153 2 3 udp 861 ------- 1 0.1 5.0 11 24
- 0.698356 2 3 udp 861 ------- 1 0.1 5.0 11 24
r 0.702833 0 2 udp 355 ------- 1 0.0 4.0 13 25
+ 0.702833 2 3 udp 355 ------- 1 0.0 4.0 13 25
r 0.702903 3 5 udp 1000 ------- 1 0.1 5.0 4 7
r 0.710143 3 5 udp 181 ------- 1 0.1 5.0 5 8
r 0.712863 3 4 udp 677 ------- 1 0.0 4.0 3 9
+ 0.713999 0 2 udp 1000 ------- 1 0.0 4.0 16 34
- 0.713999 0 2 udp 1000 ------- 1 0.0 4.0 16 34
+ 0.713999 0 2 udp 242 ------- 1 0.0 4.0 17 35
r 0.715503 2 3 udp 1000 ------- 1 0.0 4.0 7 16
+ 0.715503 3 4 udp 1000 ------- 1 0.0 4.0 7 16
- 0.715503 3 4 udp 1000 ------- 1 0.0 4.0 7 16
r 0.716343 3 4 udp 87 ------- 1 0.0 4.0 4 11
- 0.721316 2 3 udp 355 ------- 1 0.0 4.0 13 25
r 0.724859 3 4 udp 50 ------- 1 0.0 4.0 5 13
r 0.725423 3 5 udp 382 ------- 1 0.1 5.0 6 10
r 0.726703 2 3 udp 420 ------- 1 0.0 4.0 8 17
+ 0.726703 3 4 udp 420 ------- 1 0.0 4.0 8 17
r 0.728663 3 5 udp 81 ------- 1 0.1 5.0 7 12
- 0.729999 0 2 udp 242 ------- 1 0.0 4.0 17 35
r 0.741263 2 3 udp 546 ------- 1 0.0 4.0 9 18
+ 0.741263 3 4 udp 546 ------- 1 0.0 4.0 9 18
r 0.742584 0 2 udp 315 ------- 1 0.1 5.0 12 26
+ 0.742584 2 3 udp 315 ------- 1 0.1 5.0 12 26
- 0.742584 2 3 udp 315 ------- 1 0.1 5.0 12 26
- 0.755503 3 4 udp 420 ------- 1 0.0 4.0 8 17
r 0.758584 0 2 udp 1000 ------- 1 0.1 5.0 13 27
+ 0.758584 2 3 udp 1000 ------- 1 0.1 5.0 13 27
- 0.758584 2 3 udp 1000 ------- 1 0.1 5.0 13 27
r 0.759369 2 3 udp 679 ------- 1 0.1 5.0 9 19
+ 0.759369 3 5 udp 679 ------- 1 0.1 5.0 9 19
- 0.759369 3 5 udp 679 ------- 1 0.1 5.0 9 19
r 0.761129 2 3 udp 66 ------- 1 0.0 4.0 10 20
+ 0.761129 3 4 udp 66 ------- 1 0.0 4.0 10 20
r 0.762008 0 2 udp 214 ------- 1 0.1 5.0 14 28
+ 0.762008 2 3 udp 214 ------- 1 0.1 5.0 14 28
r 0.763604 3 4 udp 453 ------- 1 0.0 4.0 6 14
r 0.764552 0 2 udp 159 ------- 1 0.1 5.0 15 29
+ 0.764552 2 3 udp 159 ------- 1 0.1 5.0 15 29
r 0.767 0 2 udp 153 ------- 1 0.1 5.0 16 30
+ 0.767 2 3 udp 153 ------- 1 0.1 5.0 16 30
- 0.772303 3 4 udp 546 ------- 1 0.0 4.0 9 18
r 0.772516 2 3 udp 427 ------- 1 0.0 4.0 11 21
+ 0.772516 3 4 udp 427 ------- 1 0.0 4.0 11 21
r 0.772762 3 5 udp 28 ------- 1 0.1 5.0 8 15
r 0.775119 0 2 udp 291 ------- 1 0.1 5.0 17 31
+ 0.775119 2 3 udp 291 ------- 1 0.1 5.0 17 31
- 0.785251 2 3 udp 214 ------- 1 0.1 5.0 14 28
- 0.790958 2 3 udp 159 ------- 1 0.1 5.0 15 29
- 0.794143 3 4 udp 66 ------- 1 0.0 4.0 10 20
r 0.794397 0 2 udp 205 ------- 1 0.0 4.0 14 32
+ 0.794397 2 3 udp 205 ------- 1 0.0 4.0 14 32
r 0.794916 2 3 udp 840 ------- 1 0.1 5.0 10 22
+ 0.794916 3 5 udp 840 ------- 1 0.1 5.0 10 22
- 0.794916 3 5 udp 840 ------- 1 0.1 5.0 10 22
- 0.795198 2 3 udp 153 ------- 1 0.1 5.0 16 30
- 0.796783 3 4 udp 427 ------- 1 0.0 4.0 11 21
r 0.798356 2 3 udp 129 ------- 1 0.0 4.0 12 23
+ 0.798356 3 4 udp 129 ------- 1 0.0 4.0 12 23
- 0.799278 2 3 udp 291 ------- 1 0.1 5.0 17 31
r 0.800821 0 2 udp 302 ------- 1 0.0 4.0 15 33
+ 0.800821 2 3 udp 302 ------- 1 0.0 4.0 15 33
- 0.807038 2 3 udp 205 ------- 1 0.0 4.0 14 32
- 0.812504 2 3 udp 302 ------- 1 0.0 4.0 15 33
- 0.813863 3 4 udp 129 ------- 1 0.0 4.0 12 23
r 0.821316 2 3 udp 861 ------- 1 0.1 5.0 11 24
+ 0.821316 3 5 udp 861 ------- 1 0.1 5.0 11 24
- 0.828516 3 5 udp 861 ------- 1 0.1 5.0 11 24
r 0.829999 0 2 udp 1000 ------- 1 0.0 4.0 16 34
+ 0.829999 2 3 udp 1000 ------- 1 0.0 4.0 16 34
- 0.829999 2 3 udp 1000 ------- 1 0.0 4.0 16 34
r 0.830783 2 3 udp 355 ------- 1 0.0 4.0 13 25
+ 0.830783 3 4 udp 355 ------- 1 0.0 4.0 13 25
- 0.830783 3 4 udp 355 ------- 1 0.0 4.0 13 25
r 0.833871 0 2 udp 242 ------- 1 0.0 4.0 17 35
+ 0.833871 2 3 udp 242 ------- 1 0.0 4.0 17 35
r 0.850984 2 3 udp 315 ------- 1 0.1 5.0 12 26
+ 0.850984 3 5 udp 315 ------- 1 0.1 5.0 12 26
r 0.855503 3 4 udp 1000 ------- 1 0.0 4.0 7 16
- 0.856665 2 3 udp 242 ------- 1 0.0 4.0 17 35
- 0.862956 3 5 udp 315 ------- 1 0.1 5.0 12 26
r 0.872303 3 4 udp 420 ------- 1 0.0 4.0 8 17
r 0.885251 2 3 udp 1000 ------- 1 0.1 5.0 13 27
+ 0.885251 3 5 udp 1000 ------- 1 0.1 5.0 13 27
- 0.885251 3 5 udp 1000 ------- 1 0.1 5.0 13 27
r 0.886529 3 5 udp 679 ------- 1 0.1 5.0 9 19
+ 0.887066 0 2 udp 46 ------- 1 0.0 4.0 18 36
- 0.887066 0 2 udp 46 ------- 1 0.0 4.0 18 36
r 0.890958 2 3 udp 214 ------- 1 0.1 5.0 14 28
+ 0.890958 3 5 udp 214 ------- 1 0.1 5.0 14 28
r 0.894143 3 4 udp 546 ------- 1 0.0 4.0 9 18
+ 0.894323 0 2 udp 594 ------- 1 0.0 4.0 19 37
- 0.894323 0 2 udp 594 ------- 1 0.0 4.0 19 37
r 0.895198 2 3 udp 159 ------- 1 0.1 5.0 15 29
+ 0.895198 3 5 udp 159 ------- 1 0.1 5.0 15 29
r 0.896783 3 4 udp 66 ------- 1 0.0 4.0 10 20
r 0.899278 2 3 udp 153 ------- 1 0.1 5.0 16 30
+ 0.899278 3 5 udp 153 ------- 1 0.1 5.0 16 30
r 0.907038 2 3 udp 291 ------- 1 0.1 5.0 17 31
+ 0.907038 3 5 udp 291 ------- 1 0.1 5.0 17 31
r 0.912504 2 3 udp 205 ------- 1 0.0 4.0 14 32
+ 0.912504 3 4 udp 205 ------- 1 0.0 4.0 14 32
- 0.912504 3 4 udp 205 ------- 1 0.0 4.0 14 32
r 0.913863 3 4 udp 427 ------- 1 0.0 4.0 11 21
+ 0.914467 0 2 udp 63 ------- 1 0.1 5.0 18 38
- 0.914467 0 2 udp 63 ------- 1 0.1 5.0 18 38
r 0.919023 3 4 udp 129 ------- 1 0.0 4.0 12 23
r 0.920558 2 3 udp 302 ------- 1 0.0 4.0 15 33
+ 0.920558 3 4 udp 302 ------- 1 0.0 4.0 15 33
- 0.920704 3 4 udp 302 ------- 1 0.0 4.0 15 33
- 0.925251 3 5 udp 214 ------- 1 0.1 5.0 14 28
r 0.928516 3 5 udp 840 ------- 1 0.1 5.0 10 22
- 0.933811 3 5 udp 159 ------- 1 0.1 5.0 15 29
+ 0.937147 0 2 udp 882 ------- 1 0.0 4.0 20 39
- 0.937147 0 2 udp 882 ------- 1 0.0 4.0 20 39
- 0.940171 3 5 udp 153 ------- 1 0.1 5.0 16 30
+ 0.941465 0 2 udp 243 ------- 1 0.1 5.0 19 40
r 0.944983 3 4 udp 355 ------- 1 0.0 4.0 13 25
- 0.946291 3 5 udp 291 ------- 1 0.1 5.0 17 31
+ 0.947079 0 2 udp 398 ------- 1 0.0 4.0 21 41
- 0.951259 0 2 udp 243 ------- 1 0.1 5.0 19 40
- 0.955147 0 2 udp 398 ------- 1 0.0 4.0 21 41
r 0.956665 2 3 udp 1000 ------- 1 0.0 4.0 16 34
+ 0.956665 3 4 udp 1000 ------- 1 0.0 4.0 16 34
- 0.956665 3 4 udp 1000 ------- 1 0.0 4.0 16 34
+ 0.960129 0 2 udp 411 ------- 1 0.0 4.0 22 42
- 0.961515 0 2 udp 411 ------- 1 0.0 4.0 22 42
r 0.962956 3 5 udp 861 ------- 1 0.1 5.0 11 24
r 0.963119 2 3 udp 242 ------- 1 0.0 4.0 17 35
+ 0.963119 3 4 udp 242 ------- 1 0.0 4.0 17 35
r 0.975556 3 5 udp 315 ------- 1 0.1 5.0 12 26
r 0.987802 0 2 udp 46 ------- 1 0.0 4.0 18 36
+ 0.987802 2 3 udp 46 ------- 1 0.0 4.0 18 36
- 0.987802 2 3 udp 46 ------- 1 0.0 4.0 18 36
- 0.996665 3 4 udp 242 ------- 1 0.0 4.0 17 35
r 1.003827 0 2 udp 594 ------- 1 0.0 4.0 19 37
+ 1.003827 2 3 udp 594 ------- 1 0.0 4.0 19 37
- 1.003827 2 3 udp 594 ------- 1 0.0 4.0 19 37
r 1.015475 0 2 udp 63 ------- 1 0.1 5.0 18 38
+ 1.015475 2 3 udp 63 ------- 1 0.1 5.0 18 38
- 1.019667 2 3 udp 63 ------- 1 0.1 5.0 18 38
r 1.020704 3 4 udp 205 ------- 1 0.0 4.0 14 32
r 1.025251 3 5 udp 1000 ------- 1 0.1 5.0 13 27
r 1.032784 3 4 udp 302 ------- 1 0.0 4.0 15 33
r 1.033811 3 5 udp 214 ------- 1 0.1 5.0 14 28
r 1.040171 3 5 udp 159 ------- 1 0.1 5.0 15 29
+ 1.042836 0 2 udp 1000 ------- 1 0.1 5.0 20 43
- 1.042836 0 2 udp 1000 ------- 1 0.1 5.0 20 43
+ 1.042836 0 2 udp 64 ------- 1 0.1 5.0 21 44
r 1.046291 3 5 udp 153 ------- 1 0.1 5.0 16 30
r 1.051259 0 2 udp 882 ------- 1 0.0 4.0 20 39
+ 1.051259 2 3 udp 882 ------- 1 0.0 4.0 20 39
- 1.051259 2 3 udp 882 ------- 1 0.0 4.0 20 39
r 1.055147 0 2 udp 243 ------- 1 0.1 5.0 19 40
+ 1.055147 2 3 udp 243 ------- 1 0.1 5.0 19 40
r 1.057931 3 5 udp 291 ------- 1 0.1 5.0 17 31
- 1.058836 0 2 udp 64 ------- 1 0.1 5.0 21 44
r 1.061515 0 2 udp 398 ------- 1 0.0 4.0 21 41
+ 1.061515 2 3 udp 398 ------- 1 0.0 4.0 21 41
+ 1.064936 0 2 udp 422 ------- 1 0.0 4.0 23 45
- 1.064936 0 2 udp 422 ------- 1 0.0 4.0 23 45
r 1.068091 0 2 udp 411 ------- 1 0.0 4.0 22 42
+ 1.068091 2 3 udp 411 ------- 1 0.0 4.0 22 42
- 1.074779 2 3 udp 243 ------- 1 0.1 5.0 19 40
- 1.081259 2 3 udp 398 ------- 1 0.0 4.0 21 41
r 1.089029 2 3 udp 46 ------- 1 0.0 4.0 18 36
+ 1.089029 3 4 udp 46 ------- 1 0.0 4.0 18 36
- 1.089029 3 4 udp 46 ------- 1 0.0 4.0 18 36
- 1.091873 2 3 udp 411 ------- 1 0.0 4.0 22 42
+ 1.095757 0 2 udp 153 ------- 1 0.0 4.0 24 46
- 1.095757 0 2 udp 153 ------- 1 0.0 4.0 24 46
r 1.096665 3 4 udp 1000 ------- 1 0.0 4.0 16 34
r 1.106345 3 4 udp 242 ------- 1 0.0 4.0 17 35
+ 1.113713 0 2 udp 237 ------- 1 0.1 5.0 22 47
- 1.113713 0 2 udp 237 ------- 1 0.1 5.0 22 47
+ 1.115891 0 2 udp 723 ------- 1 0.0 4.0 25 48
- 1.117505 0 2 udp 723 ------- 1 0.0 4.0 25 48
r 1.119667 2 3 udp 594 ------- 1 0.0 4.0 19 37
+ 1.119667 3 4 udp 594 ------- 1 0.0 4.0 19 37
- 1.119667 3 4 udp 594 ------- 1 0.0 4.0 19 37
r 1.121347 2 3 udp 63 ------- 1 0.1 5.0 18 38
+ 1.121347 3 5 udp 63 ------- 1 0.1 5.0 18 38
- 1.121347 3 5 udp 63 ------- 1 0.1 5.0 18 38
+ 1.152729 0 2 udp 69 ------- 1 0.0 4.0 26 49
- 1.152729 0 2 udp 69 ------- 1 0.0 4.0 26 49
r 1.158836 0 2 udp 1000 ------- 1 0.1 5.0 20 43
+ 1.158836 2 3 udp 1000 ------- 1 0.1 5.0 20 43
- 1.158836 2 3 udp 1000 ------- 1 0.1 5.0 20 43
r 1.15986 0 2 udp 64 ------- 1 0.1 5.0 21 44
+ 1.15986 2 3 udp 64 ------- 1 0.1 5.0 21 44
r 1.171688 0 2 udp 422 ------- 1 0.0 4.0 23 45
+ 1.171688 2 3 udp 422 ------- 1 0.0 4.0 23 45
r 1.174779 2 3 udp 882 ------- 1 0.0 4.0 20 39
+ 1.174779 3 4 udp 882 ------- 1 0.0 4.0 20 39
- 1.174779 3 4 udp 882 ------- 1 0.0 4.0 20 39
r 1.181259 2 3 udp 243 ------- 1 0.1 5.0 19 40
+ 1.181259 3 5 udp 243 ------- 1 0.1 5.0 19 40
- 1.181259 3 5 udp 243 ------- 1 0.1 5.0 19 40
- 1.185503 2 3 udp 64 ------- 1 0.1 5.0 21 44
- 1.187209 2 3 udp 422 ------- 1 0.0 4.0 23 45
+ 1.187397 0 2 udp 174 ------- 1 0.0 4.0 27 50
- 1.187397 0 2 udp 174 ------- 1 0.0 4.0 27 50
r 1.190869 3 4 udp 46 ------- 1 0.0 4.0 18 36
r 1.191873 2 3 udp 398 ------- 1 0.0 4.0 21 41
+ 1.191873 3 4 udp 398 ------- 1 0.0 4.0 21 41
r 1.198205 0 2 udp 153 ------- 1 0.0 4.0 24 46
+ 1.198205 2 3 udp 153 ------- 1 0.0 4.0 24 46
+ 1.198343 0 2 udp 1000 ------- 1 0.0 4.0 28 51
- 1.198343 0 2 udp 1000 ------- 1 0.0 4.0 28 51
+ 1.198343 0 2 udp 418 ------- 1 0.0 4.0 29 52
- 1.198463 2 3 udp 153 ------- 1 0.0 4.0 24 46
+ 1.202064 0 2 udp 225 ------- 1 0.0 4.0 30 53
r 1.202833 2 3 udp 411 ------- 1 0.0 4.0 22 42
+ 1.202833 3 4 udp 411 ------- 1 0.0 4.0 22 42
+ 1.206677 0 2 udp 408 ------- 1 0.1 5.0 23 54
- 1.210059 3 4 udp 398 ------- 1 0.0 4.0 21 41
- 1.214343 0 2 udp 418 ------- 1 0.0 4.0 29 52
r 1.217505 0 2 udp 237 ------- 1 0.1 5.0 22 47
+ 1.217505 2 3 udp 237 ------- 1 0.1 5.0 22 47
- 1.217505 2 3 udp 237 ------- 1 0.1 5.0 22 47
- 1.221031 0 2 udp 225 ------- 1 0.0 4.0 30 53
r 1.223867 3 5 udp 63 ------- 1 0.1 5.0 18 38
- 1.224631 0 2 udp 408 ------- 1 0.1 5.0 23 54
- 1.225979 3 4 udp 411 ------- 1 0.0 4.0 22 42
r 1.229073 0 2 udp 723 ------- 1 0.0 4.0 25 48
+ 1.229073 2 3 udp 723 ------- 1 0.0 4.0 25 48
- 1.229073 2 3 udp 723 ------- 1 0.0 4.0 25 48
+ 1.236159 0 2 udp 52 ------- 1 0.1 5.0 24 55
- 1.236159 0 2 udp 52 ------- 1 0.1 5.0 24 55
r 1.243427 3 4 udp 594 ------- 1 0.0 4.0 19 37
+ 1.251691 0 2 udp 943 ------- 1 0.1 5.0 25 56
- 1.251691 0 2 udp 943 ------- 1 0.1 5.0 25 56
+ 1.253672 0 2 udp 312 ------- 1 0.0 4.0 31 57
r 1.253833 0 2 udp 69 ------- 1 0.0 4.0 26 49
+ 1.253833 2 3 udp 69 ------- 1 0.0 4.0 26 49
- 1.253833 2 3 udp 69 ------- 1 0.0 4.0 26 49
+ 1.265987 0 2 udp 329 ------- 1 0.1 5.0 26 58
+ 1.266558 0 2 udp 668 ------- 1 0.0 4.0 32 59
- 1.266779 0 2 udp 312 ------- 1 0.0 4.0 31 57
- 1.271771 0 2 udp 329 ------- 1 0.1 5.0 26 58
+ 1.272858 0 2 udp 790 ------- 1 0.1 5.0 27 60
- 1.277035 0 2 udp 668 ------- 1 0.0 4.0 32 59
+ 1.27862 0 2 udp 911 ------- 1 0.0 4.0 33 61
r 1.285503 2 3 udp 1000 ------- 1 0.1 5.0 20 43
+ 1.285503 3 5 udp 1000 ------- 1 0.1 5.0 20 43
- 1.285503 3 5 udp 1000 ------- 1 0.1 5.0 20 43
+ 1.287014 0 2 udp 246 ------- 1 0.1 5.0 28 62
r 1.287209 2 3 udp 64 ------- 1 0.1 5.0 21 44
+ 1.287209 3 5 udp 64 ------- 1 0.1 5.0 21 44
- 1.287723 0 2 udp 790 ------- 1 0.1 5.0 27 60
r 1.290181 0 2 udp 174 ------- 1 0.0 4.0 27 50
+ 1.290181 2 3 udp 174 ------- 1 0.0 4.0 27 50
- 1.290181 2 3 udp 174 ------- 1 0.0 4.0 27 50
r 1.290979 3 5 udp 243 ------- 1 0.1 5.0 19 40
r 1.298463 2 3 udp 422 ------- 1 0.0 4.0 23 45
+ 1.298463 3 4 udp 422 ------- 1 0.0 4.0 23 45
- 1.298463 3 4 udp 422 ------- 1 0.0 4.0 23 45
- 1.300363 0 2 udp 911 ------- 1 0.0 4.0 33 61
r 1.302543 2 3 udp 153 ------- 1 0.0 4.0 24 46
+ 1.302543 3 4 udp 153 ------- 1 0.0 4.0 24 46
+ 1.306437 0 2 udp 636 ------- 1 0.0 4.0 34 63
+ 1.309581 0 2 udp 1000 ------- 1 0.0 4.0 35 64
+ 1.309581 0 2 udp 590 ------- 1 0.0 4.0 36 65
r 1.310059 3 4 udp 882 ------- 1 0.0 4.0 20 39
r 1.314343 0 2 udp 1000 ------- 1 0.0 4.0 28 51
+ 1.314343 2 3 udp 1000 ------- 1 0.0 4.0 28 51
- 1.314343 2 3 udp 1000 ------- 1 0.0 4.0 28 51
- 1.314939 0 2 udp 246 ------- 1 0.1 5.0 28 62
- 1.315343 3 4 udp 153 ------- 1 0.0 4.0 24 46
- 1.318875 0 2 udp 636 ------- 1 0.0 4.0 34 63
r 1.321031 0 2 udp 418 ------- 1 0.0 4.0 29 52
+ 1.321031 2 3 udp 418 ------- 1 0.0 4.0 29 52
r 1.323825 2 3 udp 237 ------- 1 0.1 5.0 22 47
+ 1.323825 3 5 udp 237 ------- 1 0.1 5.0 22 47
r 1.324631 0 2 udp 225 ------- 1 0.0 4.0 30 53
+ 1.324631 2 3 udp 225 ------- 1 0.0 4.0 30 53
- 1.325503 3 5 udp 64 ------- 1 0.1 5.0 21 44
r 1.325979 3 4 udp 398 ------- 1 0.0 4.0 21 41
- 1.328063 3 5 udp 237 ------- 1 0.1 5.0 22 47
- 1.329051 0 2 udp 1000 ------- 1 0.0 4.0 35 64
r 1.331159 0 2 udp 408 ------- 1 0.1 5.0 23 54
+ 1.331159 2 3 udp 408 ------- 1 0.1 5.0 23 54
r 1.336991 0 2 udp 52 ------- 1 0.1 5.0 24 55
+ 1.336991 2 3 udp 52 ------- 1 0.1 5.0 24 55
- 1.34101 2 3 udp 418 ------- 1 0.0 4.0 29 52
r 1.342419 3 4 udp 411 ------- 1 0.0 4.0 22 42
+ 1.342492 0 2 udp 1000 ------- 1 0.0 4.0 37 66
+ 1.342492 0 2 udp 460 ------- 1 0.0 4.0 38 67
- 1.345051 0 2 udp 590 ------- 1 0.0 4.0 36 65
r 1.348353 2 3 udp 723 ------- 1 0.0 4.0 25 48
+ 1.348353 3 4 udp 723 ------- 1 0.0 4.0 25 48
- 1.348353 3 4 udp 723 ------- 1 0.0 4.0 25 48
- 1.352157 2 3 udp 225 ------- 1 0.0 4.0 30 53
- 1.354491 0 2 udp 1000 ------- 1 0.0 4.0 37 66
r 1.355673 2 3 udp 69 ------- 1 0.0 4.0 26 49
+ 1.355673 3 4 udp 69 ------- 1 0.0 4.0 26 49
- 1.358157 2 3 udp 408 ------- 1 0.1 5.0 23 54
r 1.366779 0 2 udp 943 ------- 1 0.1 5.0 25 56
+ 1.366779 2 3 udp 943 ------- 1 0.1 5.0 25 56
- 1.369037 2 3 udp 52 ------- 1 0.1 5.0 24 55
- 1.370423 2 3 udp 943 ------- 1 0.1 5.0 25 56
- 1.370491 0 2 udp 460 ------- 1 0.0 4.0 38 67
r 1.371771 0 2 udp 312 ------- 1 0.0 4.0 31 57
+ 1.371771 2 3 udp 312 ------- 1 0.0 4.0 31 57
r 1.377035 0 2 udp 329 ------- 1 0.1 5.0 26 58
+ 1.377035 2 3 udp 329 ------- 1 0.1 5.0 26 58
- 1.377273 3 4 udp 69 ------- 1 0.0 4.0 26 49
+ 1.384995 0 2 udp 1000 ------- 1 0.1 5.0 29 68
- 1.384995 0 2 udp 1000 ------- 1 0.1 5.0 29 68
+ 1.384995 0 2 udp 447 ------- 1 0.1 5.0 30 69
r 1.387723 0 2 udp 668 ------- 1 0.0 4.0 32 59
+ 1.387723 2 3 udp 668 ------- 1 0.0 4.0 32 59
r 1.394821 2 3 udp 174 ------- 1 0.0 4.0 27 50
+ 1.394821 3 4 udp 174 ------- 1 0.0 4.0 27 50
- 1.394821 3 4 udp 174 ------- 1 0.0 4.0 27 50
- 1.39557 2 3 udp 312 ------- 1 0.0 4.0 31 57
r 1.400363 0 2 udp 790 ------- 1 0.1 5.0 27 60
+ 1.400363 2 3 udp 790 ------- 1 0.1 5.0 27 60
- 1.400995 0 2 udp 447 ------- 1 0.1 5.0 30 69
- 1.40389 2 3 udp 329 ------- 1 0.1 5.0 26 58
- 1.412663 2 3 udp 668 ------- 1 0.0 4.0 32 59
r 1.414939 0 2 udp 911 ------- 1 0.0 4.0 33 61
+ 1.414939 2 3 udp 911 ------- 1 0.0 4.0 33 61
r 1.415343 3 4 udp 422 ------- 1 0.0 4.0 23 45
+ 1.415799 0 2 udp 172 ------- 1 0.0 4.0 39 70
- 1.415799 0 2 udp 172 ------- 1 0.0 4.0 39 70
r 1.418875 0 2 udp 246 ------- 1 0.1 5.0 28 62
+ 1.418875 2 3 udp 246 ------- 1 0.1 5.0 28 62
+ 1.419714 0 2 udp 467 ------- 1 0.1 5.0 31 71
- 1.419714 0 2 udp 467 ------- 1 0.1 5.0 31 71
r 1.421463 3 4 udp 153 ------- 1 0.0 4.0 24 46
+ 1.42344 0 2 udp 272 ------- 1 0.0 4.0 40 72
r 1.425503 3 5 udp 1000 ------- 1 0.1 5.0 20 43
- 1.427186 0 2 udp 272 ------- 1 0.0 4.0 40 72
r 1.428063 3 5 udp 64 ------- 1 0.1 5.0 21 44
r 1.429051 0 2 udp 636 ------- 1 0.0 4.0 34 63
+ 1.429051 2 3 udp 636 ------- 1 0.0 4.0 34 63
- 1.430477 2 3 udp 790 ------- 1 0.1 5.0 27 60
r 1.437543 3 5 udp 237 ------- 1 0.1 5.0 22 47
r 1.44101 2 3 udp 1000 ------- 1 0.0 4.0 28 51
+ 1.44101 3 4 udp 1000 ------- 1 0.0 4.0 28 51
- 1.44101 3 4 udp 1000 ------- 1 0.0 4.0 28 51
r 1.445051 0 2 udp 1000 ------- 1 0.0 4.0 35 64
+ 1.445051 2 3 udp 1000 ------- 1 0.0 4.0 35 64
- 1.451543 2 3 udp 911 ------- 1 0.0 4.0 33 61
r 1.452157 2 3 udp 418 ------- 1 0.0 4.0 29 52
+ 1.452157 3 4 udp 418 ------- 1 0.0 4.0 29 52
r 1.454491 0 2 udp 590 ------- 1 0.0 4.0 36 65
+ 1.454491 2 3 udp 590 ------- 1 0.0 4.0 36 65
r 1.458157 2 3 udp 225 ------- 1 0.0 4.0 30 53
+ 1.458157 3 4 udp 225 ------- 1 0.0 4.0 30 53
+ 1.464269 0 2 udp 108 ------- 1 0.1 5.0 32 73
- 1.464269 0 2 udp 108 ------- 1 0.1 5.0 32 73
+ 1.468071 0 2 udp 116 ------- 1 0.0 4.0 41 74
- 1.468071 0 2 udp 116 ------- 1 0.0 4.0 41 74
r 1.469037 2 3 udp 408 ------- 1 0.1 5.0 23 54
+ 1.469037 3 5 udp 408 ------- 1 0.1 5.0 23 54
- 1.469037 3 5 udp 408 ------- 1 0.1 5.0 23 54
r 1.470423 2 3 udp 52 ------- 1 0.1 5.0 24 55
+ 1.470423 3 5 udp 52 ------- 1 0.1 5.0 24 55
r 1.470491 0 2 udp 1000 ------- 1 0.0 4.0 37 66
+ 1.470491 2 3 udp 1000 ------- 1 0.0 4.0 37 66
- 1.475837 2 3 udp 246 ------- 1 0.1 5.0 28 62
r 1.477273 3 4 udp 723 ------- 1 0.0 4.0 25 48
r 1.477851 0 2 udp 460 ------- 1 0.0 4.0 38 67
+ 1.477851 2 3 udp 460 ------- 1 0.0 4.0 38 67
r 1.480033 3 4 udp 69 ------- 1 0.0 4.0 26 49
- 1.48101 3 4 udp 418 ------- 1 0.0 4.0 29 52
- 1.482397 2 3 udp 636 ------- 1 0.0 4.0 34 63
- 1.485357 3 5 udp 52 ------- 1 0.1 5.0 24 55
r 1.49557 2 3 udp 943 ------- 1 0.1 5.0 25 56
+ 1.49557 3 5 udp 943 ------- 1 0.1 5.0 25 56
- 1.49557 3 5 udp 943 ------- 1 0.1 5.0 25 56
- 1.49773 3 4 udp 225 ------- 1 0.0 4.0 30 53
- 1.499357 2 3 udp 1000 ------- 1 0.0 4.0 35 64
r 1.500995 0 2 udp 1000 ------- 1 0.1 5.0 29 68
+ 1.500995 2 3 udp 1000 ------- 1 0.1 5.0 29 68
r 1.501781 3 4 udp 174 ------- 1 0.0 4.0 27 50
r 1.50389 2 3 udp 312 ------- 1 0.0 4.0 31 57
+ 1.50389 3 4 udp 312 ------- 1 0.0 4.0 31 57
- 1.50673 3 4 udp 312 ------- 1 0.0 4.0 31 57
r 1.508147 0 2 udp 447 ------- 1 0.1 5.0 30 69
+ 1.508147 2 3 udp 447 ------- 1 0.1 5.0 30 69
r 1.512663 2 3 udp 329 ------- 1 0.1 5.0 26 58
+ 1.512663 3 5 udp 329 ------- 1 0.1 5.0 26 58
r 1.518551 0 2 udp 172 ------- 1 0.0 4.0 39 70
+ 1.518551 2 3 udp 172 ------- 1 0.0 4.0 39 70
- 1.526023 2 3 udp 590 ------- 1 0.0 4.0 36 65
r 1.527186 0 2 udp 467 ------- 1 0.1 5.0 31 71
+ 1.527186 2 3 udp 467 ------- 1 0.1 5.0 31 71
r 1.530477 2 3 udp 668 ------- 1 0.0 4.0 32 59
+ 1.530477 3 4 udp 668 ------- 1 0.0 4.0 32 59
- 1.530477 3 4 udp 668 ------- 1 0.0 4.0 32 59
r 1.531538 0 2 udp 272 ------- 1 0.0 4.0 40 72
+ 1.531538 2 3 udp 272 ------- 1 0.0 4.0 40 72
- 1.53329 3 5 udp 329 ------- 1 0.1 5.0 26 58
- 1.541757 2 3 udp 1000 ------- 1 0.0 4.0 37 66
r 1.551543 2 3 udp 790 ------- 1 0.1 5.0 27 60
+ 1.551543 3 5 udp 790 ------- 1 0.1 5.0 27 60
- 1.551543 3 5 udp 790 ------- 1 0.1 5.0 27 60
r 1.565997 0 2 udp 108 ------- 1 0.1 5.0 32 73
+ 1.565997 2 3 udp 108 ------- 1 0.1 5.0 32 73
- 1.568423 2 3 udp 460 ------- 1 0.0 4.0 38 67
r 1.569927 0 2 udp 116 ------- 1 0.0 4.0 41 74
+ 1.569927 2 3 udp 116 ------- 1 0.0 4.0 41 74
r 1.575837 2 3 udp 911 ------- 1 0.0 4.0 33 61
+ 1.575837 3 4 udp 911 ------- 1 0.0 4.0 33 61
- 1.575837 3 4 udp 911 ------- 1 0.0 4.0 33 61
- 1.58069 2 3 udp 1000 ------- 1 0.1 5.0 29 68
r 1.58101 3 4 udp 1000 ------- 1 0.0 4.0 28 51
+ 1.58101 0 2 udp 88 ------- 1 0.0 4.0 42 75
- 1.58101 0 2 udp 88 ------- 1 0.0 4.0 42 75
r 1.582397 2 3 udp 246 ------- 1 0.1 5.0 28 62
+ 1.582397 3 5 udp 246 ------- 1 0.1 5.0 28 62
- 1.583143 3 5 udp 246 ------- 1 0.1 5.0 28 62
r 1.585357 3 5 udp 408 ------- 1 0.1 5.0 23 54
r 1.587437 3 5 udp 52 ------- 1 0.1 5.0 24 55
r 1.59773 3 4 udp 418 ------- 1 0.0 4.0 29 52
r 1.599357 2 3 udp 636 ------- 1 0.0 4.0 34 63
+ 1.599357 3 4 udp 636 ------- 1 0.0 4.0 34 63
r 1.60673 3 4 udp 225 ------- 1 0.0 4.0 30 53
- 1.607357 2 3 udp 447 ------- 1 0.1 5.0 30 69
+ 1.612091 0 2 udp 655 ------- 1 0.0 4.0 43 76
- 1.612091 0 2 udp 655 ------- 1 0.0 4.0 43 76
- 1.612277 3 4 udp 636 ------- 1 0.0 4.0 34 63
r 1.61921 3 4 udp 312 ------- 1 0.0 4.0 31 57
- 1.619277 2 3 udp 172 ------- 1 0.0 4.0 39 70
- 1.623863 2 3 udp 467 ------- 1 0.1 5.0 31 71
r 1.626023 2 3 udp 1000 ------- 1 0.0 4.0 35 64
+ 1.626023 3 4 udp 1000 ------- 1 0.0 4.0 35 64
r 1.63329 3 5 udp 943 ------- 1 0.1 5.0 25 56
- 1.636317 2 3 udp 272 ------- 1 0.0 4.0 40 72
- 1.637717 3 4 udp 1000 ------- 1 0.0 4.0 35 64
r 1.641757 2 3 udp 590 ------- 1 0.0 4.0 36 65
+ 1.641757 3 4 udp 590 ------- 1 0.0 4.0 36 65
- 1.64357 2 3 udp 108 ------- 1 0.1 5.0 32 73
- 1.64645 2 3 udp 116 ------- 1 0.0 4.0 41 74
r 1.64645 3 5 udp 329 ------- 1 0.1 5.0 26 58
+ 1.648851 0 2 udp 420 ------- 1 0.0 4.0 44 77
- 1.648851 0 2 udp 420 ------- 1 0.0 4.0 44 77
+ 1.655865 0 2 udp 1000 ------- 1 0.1 5.0 33 78
- 1.655865 0 2 udp 1000 ------- 1 0.1 5.0 33 78
+ 1.655865 0 2 udp 1000 ------- 1 0.1 5.0 34 79
+ 1.655865 0 2 udp 418 ------- 1 0.1 5.0 35 80
r 1.657197 3 4 udp 668 ------- 1 0.0 4.0 32 59
r 1.668423 2 3 udp 1000 ------- 1 0.0 4.0 37 66
+ 1.668423 3 4 udp 1000 ------- 1 0.0 4.0 37 66
- 1.671865 0 2 udp 1000 ------- 1 0.1 5.0 34 79