+ 0.0001 0 2 tcp 40 ------- 1 0.0 4.0 0 0
- 0.0001 0 2 tcp 40 ------- 1 0.0 4.0 0 0
+ 0.016466 0 2 tcp 40 ------- 1 0.1 5.0 0 1
- 0.016466 0 2 tcp 40 ------- 1 0.1 5.0 0 1
r 0.1017 0 2 tcp 40 ------- 1 0.0 4.0 0 0
+ 0.1017 2 3 tcp 40 ------- 1 0.0 4.0 0 0
- 0.1017 2 3 tcp 40 ------- 1 0.0 4.0 0 0
r 0.118066 0 2 tcp 40 ------- 1 0.1 5.0 0 1
+ 0.118066 2 3 tcp 40 ------- 1 0.1 5.0 0 1
- 0.118066 2 3 tcp 40 ------- 1 0.1 5.0 0 1
r 0.2033 2 3 tcp 40 ------- 1 0.0 4.0 0 0
+ 0.2033 3 4 tcp 40 ------- 1 0.0 4.0 0 0
- 0.2033 3 4 tcp 40 ------- 1 0.0 4.0 0 0
r 0.219666 2 3 tcp 40 ------- 1 0.1 5.0 0 1
+ 0.219666 3 5 tcp 40 ------- 1 0.1 5.0 0 1
- 0.219666 3 5 tcp 40 ------- 1 0.1 5.0 0 1
r 0.3049 3 4 tcp 40 ------- 1 0.0 4.0 0 0
+ 0.3049 4 3 ack 40 ------- 1 4.0 0.0 0 2
- 0.3049 4 3 ack 40 ------- 1 4.0 0.0 0 2
r 0.321266 3 5 tcp 40 ------- 1 0.1 5.0 0 1
+ 0.321266 5 3 ack 40 ------- 1 5.0 0.1 0 3
- 0.321266 5 3 ack 40 ------- 1 5.0 0.1 0 3
r 0.4065 4 3 ack 40 ------- 1 4.0 0.0 0 2
+ 0.4065 3 2 ack 40 ------- 1 4.0 0.0 0 2
- 0.4065 3 2 ack 40 ------- 1 4.0 0.0 0 2
r 0.422866 5 3 ack 40 ------- 1 5.0 0.1 0 3
+ 0.422866 3 2 ack 40 ------- 1 5.0 0.1 0 3
- 0.422866 3 2 ack 40 ------- 1 5.0 0.1 0 3
r 0.5081 3 2 ack 40 ------- 1 4.0 0.0 0 2
+ 0.5081 2 0 ack 40 ------- 1 4.0 0.0 0 2
- 0.5081 2 0 ack 40 ------- 1 4.0 0.0 0 2
r 0.524466 3 2 ack 40 ------- 1 5.0 0.1 0 3
+ 0.524466 2 0 ack 40 ------- 1 5.0 0.1 0 3
- 0.524466 2 0 ack 40 ------- 1 5.0 0.1 0 3
r 0.6097 2 0 ack 40 ------- 1 4.0 0.0 0 2
+ 0.6097 0 2 tcp 1040 ------- 1 0.0 4.0 1 4
- 0.6097 0 2 tcp 1040 ------- 1 0.0 4.0 1 4
+ 0.6097 0 2 tcp 1040 ------- 1 0.0 4.0 2 5
r 0.626066 2 0 ack 40 ------- 1 5.0 0.1 0 3
+ 0.626066 0 2 tcp 1040 ------- 1 0.1 5.0 1 6
+ 0.626066 0 2 tcp 1040 ------- 1 0.1 5.0 2 7
- 0.6513 0 2 tcp 1040 ------- 1 0.0 4.0 2 5
- 0.6929 0 2 tcp 1040 ------- 1 0.1 5.0 1 6
- 0.7345 0 2 tcp 1040 ------- 1 0.1 5.0 2 7
r 0.7513 0 2 tcp 1040 ------- 1 0.0 4.0 1 4
+ 0.7513 2 3 tcp 1040 ------- 1 0.0 4.0 1 4
- 0.7513 2 3 tcp 1040 ------- 1 0.0 4.0 1 4
r 0.7929 0 2 tcp 1040 ------- 1 0.0 4.0 2 5
+ 0.7929 2 3 tcp 1040 ------- 1 0.0 4.0 2 5
- 0.7929 2 3 tcp 1040 ------- 1 0.0 4.0 2 5
r 0.8345 0 2 tcp 1040 ------- 1 0.1 5.0 1 6
+ 0.8345 2 3 tcp 1040 ------- 1 0.1 5.0 1 6
- 0.8345 2 3 tcp 1040 ------- 1 0.1 5.0 1 6
r 0.8761 0 2 tcp 1040 ------- 1 0.1 5.0 2 7
+ 0.8761 2 3 tcp 1040 ------- 1 0.1 5.0 2 7
- 0.8761 2 3 tcp 1040 ------- 1 0.1 5.0 2 7
r 0.8929 2 3 tcp 1040 ------- 1 0.0 4.0 1 4
+ 0.8929 3 4 tcp 1040 ------- 1 0.0 4.0 1 4
- 0.8929 3 4 tcp 1040 ------- 1 0.0 4.0 1 4
r 0.9345 2 3 tcp 1040 ------- 1 0.0 4.0 2 5
+ 0.9345 3 4 tcp 1040 ------- 1 0.0 4.0 2 5
- 0.9345 3 4 tcp 1040 ------- 1 0.0 4.0 2 5
r 0.9761 2 3 tcp 1040 ------- 1 0.1 5.0 1 6
+ 0.9761 3 5 tcp 1040 ------- 1 0.1 5.0 1 6
- 0.9761 3 5 tcp 1040 ------- 1 0.1 5.0 1 6
r 1.0177 2 3 tcp 1040 ------- 1 0.1 5.0 2 7
+ 1.0177 3 5 tcp 1040 ------- 1 0.1 5.0 2 7
- 1.0177 3 5 tcp 1040 ------- 1 0.1 5.0 2 7
r 1.0345 3 4 tcp 1040 ------- 1 0.0 4.0 1 4
+ 1.0345 4 3 ack 40 ------- 1 4.0 0.0 1 8
- 1.0345 4 3 ack 40 ------- 1 4.0 0.0 1 8
r 1.0761 3 4 tcp 1040 ------- 1 0.0 4.0 2 5
+ 1.0761 4 3 ack 40 ------- 1 4.0 0.0 2 9
- 1.0761 4 3 ack 40 ------- 1 4.0 0.0 2 9
r 1.1177 3 5 tcp 1040 ------- 1 0.1 5.0 1 6
+ 1.1177 5 3 ack 40 ------- 1 5.0 0.1 1 10
- 1.1177 5 3 ack 40 ------- 1 5.0 0.1 1 10
r 1.1361 4 3 ack 40 ------- 1 4.0 0.0 1 8
+ 1.1361 3 2 ack 40 ------- 1 4.0 0.0 1 8
- 1.1361 3 2 ack 40 ------- 1 4.0 0.0 1 8
r 1.1593 3 5 tcp 1040 ------- 1 0.1 5.0 2 7
+ 1.1593 5 3 ack 40 ------- 1 5.0 0.1 2 11
- 1.1593 5 3 ack 40 ------- 1 5.0 0.1 2 11
r 1.1777 4 3 ack 40 ------- 1 4.0 0.0 2 9
+ 1.1777 3 2 ack 40 ------- 1 4.0 0.0 2 9
- 1.1777 3 2 ack 40 ------- 1 4.0 0.0 2 9
r 1.2193 5 3 ack 40 ------- 1 5.0 0.1 1 10
+ 1.2193 3 2 ack 40 ------- 1 5.0 0.1 1 10
- 1.2193 3 2 ack 40 ------- 1 5.0 0.1 1 10
r 1.2377 3 2 ack 40 ------- 1 4.0 0.0 1 8
+ 1.2377 2 0 ack 40 ------- 1 4.0 0.0 1 8
- 1.2377 2 0 ack 40 ------- 1 4.0 0.0 1 8
r 1.2609 5 3 ack 40 ------- 1 5.0 0.1 2 11
+ 1.2609 3 2 ack 40 ------- 1 5.0 0.1 2 11
- 1.2609 3 2 ack 40 ------- 1 5.0 0.1 2 11
r 1.2793 3 2 ack 40 ------- 1 4.0 0.0 2 9
+ 1.2793 2 0 ack 40 ------- 1 4.0 0.0 2 9
- 1.2793 2 0 ack 40 ------- 1 4.0 0.0 2 9
r 1.3209 3 2 ack 40 ------- 1 5.0 0.1 1 10
+ 1.3209 2 0 ack 40 ------- 1 5.0 0.1 1 10
- 1.3209 2 0 ack 40 ------- 1 5.0 0.1 1 10
r 1.3393 2 0 ack 40 ------- 1 4.0 0.0 1 8
+ 1.3393 0 2 tcp 1040 ------- 1 0.0 4.0 3 12
- 1.3393 0 2 tcp 1040 ------- 1 0.0 4.0 3 12
+ 1.3393 0 2 tcp 1040 ------- 1 0.0 4.0 4 13
r 1.3625 3 2 ack 40 ------- 1 5.0 0.1 2 11
+ 1.3625 2 0 ack 40 ------- 1 5.0 0.1 2 11
- 1.3625 2 0 ack 40 ------- 1 5.0 0.1 2 11
r 1.3809 2 0 ack 40 ------- 1 4.0 0.0 2 9
+ 1.3809 0 2 tcp 1040 ------- 1 0.0 4.0 5 14
+ 1.3809 0 2 tcp 1040 ------- 1 0.0 4.0 6 15
- 1.3809 0 2 tcp 1040 ------- 1 0.0 4.0 4 13
r 1.4225 2 0 ack 40 ------- 1 5.0 0.1 1 10
+ 1.4225 0 2 tcp 1040 ------- 1 0.1 5.0 3 16
+ 1.4225 0 2 tcp 1040 ------- 1 0.1 5.0 4 17
- 1.4225 0 2 tcp 1040 ------- 1 0.0 4.0 5 14
r 1.4641 2 0 ack 40 ------- 1 5.0 0.1 2 11
+ 1.4641 0 2 tcp 1040 ------- 1 0.1 5.0 5 18
+ 1.4641 0 2 tcp 1040 ------- 1 0.1 5.0 6 19
- 1.4641 0 2 tcp 1040 ------- 1 0.0 4.0 6 15
r 1.4809 0 2 tcp 1040 ------- 1 0.0 4.0 3 12
+ 1.4809 2 3 tcp 1040 ------- 1 0.0 4.0 3 12
- 1.4809 2 3 tcp 1040 ------- 1 0.0 4.0 3 12
- 1.5057 0 2 tcp 1040 ------- 1 0.1 5.0 3 16
r 1.5225 0 2 tcp 1040 ------- 1 0.0 4.0 4 13
+ 1.5225 2 3 tcp 1040 ------- 1 0.0 4.0 4 13
- 1.5225 2 3 tcp 1040 ------- 1 0.0 4.0 4 13
- 1.5473 0 2 tcp 1040 ------- 1 0.1 5.0 4 17
r 1.5641 0 2 tcp 1040 ------- 1 0.0 4.0 5 14
+ 1.5641 2 3 tcp 1040 ------- 1 0.0 4.0 5 14
- 1.5641 2 3 tcp 1040 ------- 1 0.0 4.0 5 14
- 1.5889 0 2 tcp 1040 ------- 1 0.1 5.0 5 18
r 1.6057 0 2 tcp 1040 ------- 1 0.0 4.0 6 15
+ 1.6057 2 3 tcp 1040 ------- 1 0.0 4.0 6 15
- 1.6057 2 3 tcp 1040 ------- 1 0.0 4.0 6 15
r 1.6225 2 3 tcp 1040 ------- 1 0.0 4.0 3 12
+ 1.6225 3 4 tcp 1040 ------- 1 0.0 4.0 3 12
- 1.6225 3 4 tcp 1040 ------- 1 0.0 4.0 3 12
- 1.6305 0 2 tcp 1040 ------- 1 0.1 5.0 6 19
r 1.6473 0 2 tcp 1040 ------- 1 0.1 5.0 3 16
+ 1.6473 2 3 tcp 1040 ------- 1 0.1 5.0 3 16
- 1.6473 2 3 tcp 1040 ------- 1 0.1 5.0 3 16
r 1.6641 2 3 tcp 1040 ------- 1 0.0 4.0 4 13
+ 1.6641 3 4 tcp 1040 ------- 1 0.0 4.0 4 13
- 1.6641 3 4 tcp 1040 ------- 1 0.0 4.0 4 13
r 1.6889 0 2 tcp 1040 ------- 1 0.1 5.0 4 17
+ 1.6889 2 3 tcp 1040 ------- 1 0.1 5.0 4 17
- 1.6889 2 3 tcp 1040 ------- 1 0.1 5.0 4 17
r 1.7057 2 3 tcp 1040 ------- 1 0.0 4.0 5 14
+ 1.7057 3 4 tcp 1040 ------- 1 0.0 4.0 5 14
- 1.7057 3 4 tcp 1040 ------- 1 0.0 4.0 5 14
r 1.7305 0 2 tcp 1040 ------- 1 0.1 5.0 5 18
+ 1.7305 2 3 tcp 1040 ------- 1 0.1 5.0 5 18
- 1.7305 2 3 tcp 1040 ------- 1 0.1 5.0 5 18
r 1.7473 2 3 tcp 1040 ------- 1 0.0 4.0 6 15
+ 1.7473 3 4 tcp 1040 ------- 1 0.0 4.0 6 15
- 1.7473 3 4 tcp 1040 ------- 1 0.0 4.0 6 15
r 1.7641 3 4 tcp 1040 ------- 1 0.0 4.0 3 12
+ 1.7641 4 3 ack 40 ------- 1 4.0 0.0 3 20
- 1.7641 4 3 ack 40 ------- 1 4.0 0.0 3 20
r 1.7721 0 2 tcp 1040 ------- 1 0.1 5.0 6 19
+ 1.7721 2 3 tcp 1040 ------- 1 0.1 5.0 6 19
- 1.7721 2 3 tcp 1040 ------- 1 0.1 5.0 6 19
r 1.7889 2 3 tcp 1040 ------- 1 0.1 5.0 3 16
+ 1.7889 3 5 tcp 1040 ------- 1 0.1 5.0 3 16
- 1.7889 3 5 tcp 1040 ------- 1 0.1 5.0 3 16
r 1.8057 3 4 tcp 1040 ------- 1 0.0 4.0 4 13
+ 1.8057 4 3 ack 40 ------- 1 4.0 0.0 4 21
- 1.8057 4 3 ack 40 ------- 1 4.0 0.0 4 21
r 1.8305 2 3 tcp 1040 ------- 1 0.1 5.0 4 17
+ 1.8305 3 5 tcp 1040 ------- 1 0.1 5.0 4 17
- 1.8305 3 5 tcp 1040 ------- 1 0.1 5.0 4 17
r 1.8473 3 4 tcp 1040 ------- 1 0.0 4.0 5 14
+ 1.8473 4 3 ack 40 ------- 1 4.0 0.0 5 22
- 1.8473 4 3 ack 40 ------- 1 4.0 0.0 5 22
r 1.8657 4 3 ack 40 ------- 1 4.0 0.0 3 20
+ 1.8657 3 2 ack 40 ------- 1 4.0 0.0 3 20
- 1.8657 3 2 ack 40 ------- 1 4.0 0.0 3 20
r 1.8721 2 3 tcp 1040 ------- 1 0.1 5.0 5 18
+ 1.8721 3 5 tcp 1040 ------- 1 0.1 5.0 5 18
- 1.8721 3 5 tcp 1040 ------- 1 0.1 5.0 5 18
r 1.8889 3 4 tcp 1040 ------- 1 0.0 4.0 6 15
+ 1.8889 4 3 ack 40 ------- 1 4.0 0.0 6 23
- 1.8889 4 3 ack 40 ------- 1 4.0 0.0 6 23
r 1.9073 4 3 ack 40 ------- 1 4.0 0.0 4 21
+ 1.9073 3 2 ack 40 ------- 1 4.0 0.0 4 21
- 1.9073 3 2 ack 40 ------- 1 4.0 0.0 4 21
r 1.9137 2 3 tcp 1040 ------- 1 0.1 5.0 6 19
+ 1.9137 3 5 tcp 1040 ------- 1 0.1 5.0 6 19
- 1.9137 3 5 tcp 1040 ------- 1 0.1 5.0 6 19
r 1.9305 3 5 tcp 1040 ------- 1 0.1 5.0 3 16
+ 1.9305 5 3 ack 40 ------- 1 5.0 0.1 3 24
- 1.9305 5 3 ack 40 ------- 1 5.0 0.1 3 24
r 1.9489 4 3 ack 40 ------- 1 4.0 0.0 5 22
+ 1.9489 3 2 ack 40 ------- 1 4.0 0.0 5 22
- 1.9489 3 2 ack 40 ------- 1 4.0 0.0 5 22
r 1.9673 3 2 ack 40 ------- 1 4.0 0.0 3 20
+ 1.9673 2 0 ack 40 ------- 1 4.0 0.0 3 20
- 1.9673 2 0 ack 40 ------- 1 4.0 0.0 3 20
r 1.9721 3 5 tcp 1040 ------- 1 0.1 5.0 4 17
+ 1.9721 5 3 ack 40 ------- 1 5.0 0.1 4 25
- 1.9721 5 3 ack 40 ------- 1 5.0 0.1 4 25
r 1.9905 4 3 ack 40 ------- 1 4.0 0.0 6 23
+ 1.9905 3 2 ack 40 ------- 1 4.0 0.0 6 23
- 1.9905 3 2 ack 40 ------- 1 4.0 0.0 6 23
+ 2.0001 1 2 udp 512 ------- 2 1.0 4.1 0 26
- 2.0001 1 2 udp 512 ------- 2 1.0 4.1 0 26
r 2.0089 3 2 ack 40 ------- 1 4.0 0.0 4 21
+ 2.0089 2 0 ack 40 ------- 1 4.0 0.0 4 21
- 2.0089 2 0 ack 40 ------- 1 4.0 0.0 4 21
r 2.0137 3 5 tcp 1040 ------- 1 0.1 5.0 5 18
+ 2.0137 5 3 ack 40 ------- 1 5.0 0.1 5 27
- 2.0137 5 3 ack 40 ------- 1 5.0 0.1 5 27
r 2.0321 5 3 ack 40 ------- 1 5.0 0.1 3 24
+ 2.0321 3 2 ack 40 ------- 1 5.0 0.1 3 24
- 2.0321 3 2 ack 40 ------- 1 5.0 0.1 3 24
+ 2.046532 1 2 udp 512 ------- 2 1.1 5.1 0 28
- 2.046532 1 2 udp 512 ------- 2 1.1 5.1 0 28
r 2.0505 3 2 ack 40 ------- 1 4.0 0.0 5 22
+ 2.0505 2 0 ack 40 ------- 1 4.0 0.0 5 22
- 2.0505 2 0 ack 40 ------- 1 4.0 0.0 5 22
r 2.0553 3 5 tcp 1040 ------- 1 0.1 5.0 6 19
+ 2.0553 5 3 ack 40 ------- 1 5.0 0.1 6 29
- 2.0553 5 3 ack 40 ------- 1 5.0 0.1 6 29
+ 2.064395 1 2 udp 512 ------- 2 1.0 4.1 1 30
- 2.064395 1 2 udp 512 ------- 2 1.0 4.1 1 30
r 2.0689 2 0 ack 40 ------- 1 4.0 0.0 3 20
+ 2.0689 0 2 tcp 1040 ------- 1 0.0 4.0 7 31
- 2.0689 0 2 tcp 1040 ------- 1 0.0 4.0 7 31
+ 2.0689 0 2 tcp 1040 ------- 1 0.0 4.0 8 32
+ 2.070184 1 2 udp 512 ------- 2 1.0 4.1 2 33
+ 2.070462 1 2 udp 512 ------- 2 1.1 5.1 1 34
- 2.072587 1 2 udp 512 ------- 2 1.0 4.1 2 33
r 2.0737 5 3 ack 40 ------- 1 5.0 0.1 4 25
+ 2.0737 3 2 ack 40 ------- 1 5.0 0.1 4 25
- 2.0737 3 2 ack 40 ------- 1 5.0 0.1 4 25
+ 2.074995 1 2 udp 512 ------- 2 1.0 4.1 3 35
- 2.080779 1 2 udp 512 ------- 2 1.1 5.1 1 34
+ 2.088922 1 2 udp 512 ------- 2 1.1 5.1 2 36
- 2.088971 1 2 udp 512 ------- 2 1.0 4.1 3 35
+ 2.090954 1 2 udp 512 ------- 2 1.0 4.1 4 37
r 2.0921 3 2 ack 40 ------- 1 4.0 0.0 6 23
+ 2.0921 2 0 ack 40 ------- 1 4.0 0.0 6 23
- 2.0921 2 0 ack 40 ------- 1 4.0 0.0 6 23
+ 2.093813 1 2 udp 512 ------- 2 1.0 4.1 5 38
- 2.097163 1 2 udp 512 ------- 2 1.1 5.1 2 36
+ 2.100648 1 2 udp 512 ------- 2 1.1 5.1 3 39
- 2.105355 1 2 udp 512 ------- 2 1.0 4.1 4 37
r 2.108292 1 2 udp 512 ------- 2 1.0 4.1 0 26
+ 2.108292 2 3 udp 512 ------- 2 1.0 4.1 0 26
- 2.108292 2 3 udp 512 ------- 2 1.0 4.1 0 26
- 2.1105 0 2 tcp 1040 ------- 1 0.0 4.0 8 32
r 2.1105 2 0 ack 40 ------- 1 4.0 0.0 4 21
+ 2.1105 0 2 tcp 1040 ------- 1 0.0 4.0 9 40
+ 2.1105 0 2 tcp 1040 ------- 1 0.0 4.0 10 41
+ 2.11103 1 2 udp 512 ------- 2 1.1 5.1 4 42
- 2.113547 1 2 udp 512 ------- 2 1.0 4.1 5 38
r 2.1153 5 3 ack 40 ------- 1 5.0 0.1 5 27
+ 2.1153 3 2 ack 40 ------- 1 5.0 0.1 5 27
- 2.1153 3 2 ack 40 ------- 1 5.0 0.1 5 27
- 2.121739 1 2 udp 512 ------- 2 1.1 5.1 3 39
+ 2.123228 1 2 udp 512 ------- 2 1.1 5.1 5 43
- 2.129931 1 2 udp 512 ------- 2 1.1 5.1 4 42
+ 2.130634 1 2 udp 512 ------- 2 1.1 5.1 6 44
r 2.1337 3 2 ack 40 ------- 1 5.0 0.1 3 24
+ 2.1337 2 0 ack 40 ------- 1 5.0 0.1 3 24
- 2.1337 2 0 ack 40 ------- 1 5.0 0.1 3 24
- 2.138123 1 2 udp 512 ------- 2 1.1 5.1 5 43
+ 2.138968 1 2 udp 512 ------- 2 1.0 4.1 6 45
- 2.146315 1 2 udp 512 ------- 2 1.1 5.1 6 44
- 2.1521 0 2 tcp 1040 ------- 1 0.0 4.0 9 40
r 2.1521 2 0 ack 40 ------- 1 4.0 0.0 5 22
+ 2.1521 0 2 tcp 1040 ------- 1 0.0 4.0 11 46
+ 2.1521 0 2 tcp 1040 ------- 1 0.0 4.0 12 47
- 2.154507 1 2 udp 512 ------- 2 1.0 4.1 6 45
r 2.154724 1 2 udp 512 ------- 2 1.1 5.1 0 28
+ 2.154724 2 3 udp 512 ------- 2 1.1 5.1 0 28
- 2.154724 2 3 udp 512 ------- 2 1.1 5.1 0 28
r 2.1569 5 3 ack 40 ------- 1 5.0 0.1 6 29
+ 2.1569 3 2 ack 40 ------- 1 5.0 0.1 6 29
- 2.1569 3 2 ack 40 ------- 1 5.0 0.1 6 29
r 2.172587 1 2 udp 512 ------- 2 1.0 4.1 1 30
+ 2.172587 2 3 udp 512 ------- 2 1.0 4.1 1 30
- 2.175204 2 3 udp 512 ------- 2 1.0 4.1 1 30
r 2.1753 3 2 ack 40 ------- 1 5.0 0.1 4 25
+ 2.1753 2 0 ack 40 ------- 1 5.0 0.1 4 25
- 2.1753 2 0 ack 40 ------- 1 5.0 0.1 4 25
+ 2.176291 1 2 udp 512 ------- 2 1.1 5.1 7 48
- 2.176291 1 2 udp 512 ------- 2 1.1 5.1 7 48
+ 2.177158 1 2 udp 512 ------- 2 1.1 5.1 8 49
r 2.180779 1 2 udp 512 ------- 2 1.0 4.1 2 33
+ 2.180779 2 3 udp 512 ------- 2 1.0 4.1 2 33
+ 2.181075 1 2 udp 512 ------- 2 1.0 4.1 7 50
- 2.184483 1 2 udp 512 ------- 2 1.1 5.1 8 49
r 2.188971 1 2 udp 512 ------- 2 1.1 5.1 1 34
+ 2.188971 2 3 udp 512 ------- 2 1.1 5.1 1 34
- 2.192675 1 2 udp 512 ------- 2 1.0 4.1 7 50
- 2.1937 0 2 tcp 1040 ------- 1 0.0 4.0 10 41
r 2.1937 2 0 ack 40 ------- 1 4.0 0.0 6 23
+ 2.1937 0 2 tcp 1040 ------- 1 0.0 4.0 13 51
+ 2.1937 0 2 tcp 1040 ------- 1 0.0 4.0 14 52
- 2.195684 2 3 udp 512 ------- 2 1.0 4.1 2 33
r 2.197163 1 2 udp 512 ------- 2 1.0 4.1 3 35
+ 2.197163 2 3 udp 512 ------- 2 1.0 4.1 3 35
r 2.205355 1 2 udp 512 ------- 2 1.1 5.1 2 36
+ 2.205355 2 3 udp 512 ------- 2 1.1 5.1 2 36
+ 2.208353 1 2 udp 512 ------- 2 1.0 4.1 8 53
- 2.208353 1 2 udp 512 ------- 2 1.0 4.1 8 53
r 2.2105 0 2 tcp 1040 ------- 1 0.0 4.0 7 31
+ 2.2105 2 3 tcp 1040 ------- 1 0.0 4.0 7 31
r 2.213547 1 2 udp 512 ------- 2 1.0 4.1 4 37
+ 2.213547 2 3 udp 512 ------- 2 1.0 4.1 4 37
d 2.213547 2 3 udp 512 ------- 2 1.0 4.1 4 37
- 2.216164 2 3 udp 512 ------- 2 1.1 5.1 1 34
r 2.2169 3 2 ack 40 ------- 1 5.0 0.1 5 27
+ 2.2169 2 0 ack 40 ------- 1 5.0 0.1 5 27
- 2.2169 2 0 ack 40 ------- 1 5.0 0.1 5 27
r 2.221739 1 2 udp 512 ------- 2 1.0 4.1 5 38
+ 2.221739 2 3 udp 512 ------- 2 1.0 4.1 5 38
+ 2.228146 1 2 udp 512 ------- 2 1.0 4.1 9 54
- 2.228146 1 2 udp 512 ------- 2 1.0 4.1 9 54
r 2.228772 2 3 udp 512 ------- 2 1.0 4.1 0 26
+ 2.228772 3 4 udp 512 ------- 2 1.0 4.1 0 26
- 2.228772 3 4 udp 512 ------- 2 1.0 4.1 0 26
r 2.229931 1 2 udp 512 ------- 2 1.1 5.1 3 39
+ 2.229931 2 3 udp 512 ------- 2 1.1 5.1 3 39
d 2.229931 2 3 udp 512 ------- 2 1.1 5.1 3 39
- 2.2353 0 2 tcp 1040 ------- 1 0.0 4.0 11 46
r 2.2353 2 0 ack 40 ------- 1 5.0 0.1 3 24
+ 2.2353 0 2 tcp 1040 ------- 1 0.1 5.0 7 55
+ 2.2353 0 2 tcp 1040 ------- 1 0.1 5.0 8 56
- 2.236644 2 3 udp 512 ------- 2 1.0 4.1 3 35
r 2.238123 1 2 udp 512 ------- 2 1.1 5.1 4 42
+ 2.238123 2 3 udp 512 ------- 2 1.1 5.1 4 42
+ 2.239242 1 2 udp 512 ------- 2 1.0 4.1 10 57
- 2.239242 1 2 udp 512 ------- 2 1.0 4.1 10 57
+ 2.239306 1 2 udp 512 ------- 2 1.1 5.1 9 58
r 2.246315 1 2 udp 512 ------- 2 1.1 5.1 5 43
+ 2.246315 2 3 udp 512 ------- 2 1.1 5.1 5 43
d 2.246315 2 3 udp 512 ------- 2 1.1 5.1 5 43
- 2.247434 1 2 udp 512 ------- 2 1.1 5.1 9 58
r 2.2521 0 2 tcp 1040 ------- 1 0.0 4.0 8 32
+ 2.2521 2 3 tcp 1040 ------- 1 0.0 4.0 8 32
d 2.2521 2 3 tcp 1040 ------- 1 0.0 4.0 8 32
r 2.254507 1 2 udp 512 ------- 2 1.1 5.1 6 44
+ 2.254507 2 3 udp 512 ------- 2 1.1 5.1 6 44
d 2.254507 2 3 udp 512 ------- 2 1.1 5.1 6 44
+ 2.255648 1 2 udp 512 ------- 2 1.0 4.1 11 59
- 2.255648 1 2 udp 512 ------- 2 1.0 4.1 11 59
- 2.257124 2 3 udp 512 ------- 2 1.1 5.1 2 36
r 2.2585 3 2 ack 40 ------- 1 5.0 0.1 6 29
+ 2.2585 2 0 ack 40 ------- 1 5.0 0.1 6 29
- 2.2585 2 0 ack 40 ------- 1 5.0 0.1 6 29
+ 2.25973 1 2 udp 512 ------- 2 1.1 5.1 10 60
r 2.262699 1 2 udp 512 ------- 2 1.0 4.1 6 45
+ 2.262699 2 3 udp 512 ------- 2 1.0 4.1 6 45
- 2.26384 1 2 udp 512 ------- 2 1.1 5.1 10 60
+ 2.266365 1 2 udp 512 ------- 2 1.0 4.1 12 61
- 2.272032 1 2 udp 512 ------- 2 1.0 4.1 12 61
r 2.275204 2 3 udp 512 ------- 2 1.1 5.1 0 28
+ 2.275204 3 5 udp 512 ------- 2 1.1 5.1 0 28
- 2.275204 3 5 udp 512 ------- 2 1.1 5.1 0 28
- 2.2769 0 2 tcp 1040 ------- 1 0.0 4.0 12 47
r 2.2769 2 0 ack 40 ------- 1 5.0 0.1 4 25
+ 2.2769 0 2 tcp 1040 ------- 1 0.1 5.0 9 62
+ 2.2769 0 2 tcp 1040 ------- 1 0.1 5.0 10 63
- 2.277604 2 3 tcp 1040 ------- 1 0.0 4.0 7 31
+ 2.279698 1 2 udp 512 ------- 2 1.0 4.1 13 64
- 2.280224 1 2 udp 512 ------- 2 1.0 4.1 13 64
r 2.284483 1 2 udp 512 ------- 2 1.1 5.1 7 48
+ 2.284483 2 3 udp 512 ------- 2 1.1 5.1 7 48
r 2.292675 1 2 udp 512 ------- 2 1.1 5.1 8 49
+ 2.292675 2 3 udp 512 ------- 2 1.1 5.1 8 49
d 2.292675 2 3 udp 512 ------- 2 1.1 5.1 8 49
r 2.2937 0 2 tcp 1040 ------- 1 0.0 4.0 9 40
+ 2.2937 2 3 tcp 1040 ------- 1 0.0 4.0 9 40
d 2.2937 2 3 tcp 1040 ------- 1 0.0 4.0 9 40
r 2.295684 2 3 udp 512 ------- 2 1.0 4.1 1 30
+ 2.295684 3 4 udp 512 ------- 2 1.0 4.1 1 30
- 2.295684 3 4 udp 512 ------- 2 1.0 4.1 1 30
r 2.300867 1 2 udp 512 ------- 2 1.0 4.1 7 50
+ 2.300867 2 3 udp 512 ------- 2 1.0 4.1 7 50
d 2.300867 2 3 udp 512 ------- 2 1.0 4.1 7 50
+ 2.311165 1 2 udp 512 ------- 2 1.1 5.1 11 65
- 2.311165 1 2 udp 512 ------- 2 1.1 5.1 11 65
r 2.316164 2 3 udp 512 ------- 2 1.0 4.1 2 33
+ 2.316164 3 4 udp 512 ------- 2 1.0 4.1 2 33
- 2.316164 3 4 udp 512 ------- 2 1.0 4.1 2 33
r 2.316545 1 2 udp 512 ------- 2 1.0 4.1 8 53
+ 2.316545 2 3 udp 512 ------- 2 1.0 4.1 8 53
d 2.316545 2 3 udp 512 ------- 2 1.0 4.1 8 53
- 2.3185 0 2 tcp 1040 ------- 1 0.0 4.0 13 51
r 2.3185 2 0 ack 40 ------- 1 5.0 0.1 5 27
+ 2.3185 0 2 tcp 1040 ------- 1 0.1 5.0 11 66
+ 2.3185 0 2 tcp 1040 ------- 1 0.1 5.0 12 67
- 2.319204 2 3 udp 512 ------- 2 1.0 4.1 5 38
+ 2.329635 1 2 udp 512 ------- 2 1.1 5.1 12 68
- 2.329635 1 2 udp 512 ------- 2 1.1 5.1 12 68
+ 2.333867 1 2 udp 512 ------- 2 1.0 4.1 14 69
+ 2.334061 1 2 udp 512 ------- 2 1.0 4.1 15 70
r 2.3353 0 2 tcp 1040 ------- 1 0.0 4.0 10 41
+ 2.3353 2 3 tcp 1040 ------- 1 0.0 4.0 10 41
r 2.336338 1 2 udp 512 ------- 2 1.0 4.1 9 54
+ 2.336338 2 3 udp 512 ------- 2 1.0 4.1 9 54
d 2.336338 2 3 udp 512 ------- 2 1.0 4.1 9 54
r 2.336644 2 3 udp 512 ------- 2 1.1 5.1 1 34
+ 2.336644 3 5 udp 512 ------- 2 1.1 5.1 1 34
- 2.336644 3 5 udp 512 ------- 2 1.1 5.1 1 34
- 2.337827 1 2 udp 512 ------- 2 1.0 4.1 14 69
- 2.339684 2 3 udp 512 ------- 2 1.1 5.1 4 42
+ 2.341687 1 2 udp 512 ------- 2 1.0 4.1 16 71
- 2.346019 1 2 udp 512 ------- 2 1.0 4.1 15 70
r 2.347434 1 2 udp 512 ------- 2 1.0 4.1 10 57
+ 2.347434 2 3 udp 512 ------- 2 1.0 4.1 10 57
r 2.349252 3 4 udp 512 ------- 2 1.0 4.1 0 26
- 2.354211 1 2 udp 512 ------- 2 1.0 4.1 16 71
r 2.355626 1 2 udp 512 ------- 2 1.1 5.1 9 58
+ 2.355626 2 3 udp 512 ------- 2 1.1 5.1 9 58
d 2.355626 2 3 udp 512 ------- 2 1.1 5.1 9 58
r 2.357124 2 3 udp 512 ------- 2 1.0 4.1 3 35
+ 2.357124 3 4 udp 512 ------- 2 1.0 4.1 3 35
- 2.357124 3 4 udp 512 ------- 2 1.0 4.1 3 35
- 2.3601 0 2 tcp 1040 ------- 1 0.0 4.0 14 52
r 2.3601 2 0 ack 40 ------- 1 5.0 0.1 6 29
+ 2.3601 0 2 tcp 1040 ------- 1 0.1 5.0 13 72
+ 2.3601 0 2 tcp 1040 ------- 1 0.1 5.0 14 73
- 2.360164 2 3 udp 512 ------- 2 1.0 4.1 6 45
r 2.36384 1 2 udp 512 ------- 2 1.0 4.1 11 59
+ 2.36384 2 3 udp 512 ------- 2 1.0 4.1 11 59
r 2.372032 1 2 udp 512 ------- 2 1.1 5.1 10 60
+ 2.372032 2 3 udp 512 ------- 2 1.1 5.1 10 60
d 2.372032 2 3 udp 512 ------- 2 1.1 5.1 10 60
r 2.3769 0 2 tcp 1040 ------- 1 0.0 4.0 11 46
+ 2.3769 2 3 tcp 1040 ------- 1 0.0 4.0 11 46
d 2.3769 2 3 tcp 1040 ------- 1 0.0 4.0 11 46
r 2.377604 2 3 udp 512 ------- 2 1.1 5.1 2 36
+ 2.377604 3 5 udp 512 ------- 2 1.1 5.1 2 36
- 2.377604 3 5 udp 512 ------- 2 1.1 5.1 2 36
+ 2.378136 1 2 udp 512 ------- 2 1.0 4.1 17 74
- 2.378136 1 2 udp 512 ------- 2 1.0 4.1 17 74
r 2.380224 1 2 udp 512 ------- 2 1.0 4.1 12 61
+ 2.380224 2 3 udp 512 ------- 2 1.0 4.1 12 61
d 2.380224 2 3 udp 512 ------- 2 1.0 4.1 12 61
- 2.380644 2 3 udp 512 ------- 2 1.1 5.1 7 48
+ 2.383245 1 2 udp 512 ------- 2 1.1 5.1 13 75
- 2.386328 1 2 udp 512 ------- 2 1.1 5.1 13 75
r 2.388416 1 2 udp 512 ------- 2 1.0 4.1 13 64
+ 2.388416 2 3 udp 512 ------- 2 1.0 4.1 13 64
+ 2.388767 1 2 udp 512 ------- 2 1.1 5.1 14 76
- 2.39452 1 2 udp 512 ------- 2 1.1 5.1 14 76
r 2.395684 3 5 udp 512 ------- 2 1.1 5.1 0 28
- 2.401124 2 3 tcp 1040 ------- 1 0.0 4.0 10 41
- 2.4017 0 2 tcp 1040 ------- 1 0.1 5.0 7 55
+ 2.40492 1 2 udp 512 ------- 2 1.0 4.1 18 77
- 2.40492 1 2 udp 512 ------- 2 1.0 4.1 18 77
r 2.416164 3 4 udp 512 ------- 2 1.0 4.1 1 30
r 2.4185 0 2 tcp 1040 ------- 1 0.0 4.0 12 47
+ 2.4185 2 3 tcp 1040 ------- 1 0.0 4.0 12 47
r 2.419204 2 3 tcp 1040 ------- 1 0.0 4.0 7 31
+ 2.419204 3 4 tcp 1040 ------- 1 0.0 4.0 7 31
- 2.419204 3 4 tcp 1040 ------- 1 0.0 4.0 7 31
r 2.419357 1 2 udp 512 ------- 2 1.1 5.1 11 65
+ 2.419357 2 3 udp 512 ------- 2 1.1 5.1 11 65
d 2.419357 2 3 udp 512 ------- 2 1.1 5.1 11 65
r 2.436644 3 4 udp 512 ------- 2 1.0 4.1 2 33
r 2.437827 1 2 udp 512 ------- 2 1.1 5.1 12 68
+ 2.437827 2 3 udp 512 ------- 2 1.1 5.1 12 68
d 2.437827 2 3 udp 512 ------- 2 1.1 5.1 12 68
r 2.439684 2 3 udp 512 ------- 2 1.0 4.1 5 38
+ 2.439684 3 4 udp 512 ------- 2 1.0 4.1 5 38
- 2.442724 2 3 udp 512 ------- 2 1.0 4.1 10 57
- 2.4433 0 2 tcp 1040 ------- 1 0.1 5.0 8 56
r 2.446019 1 2 udp 512 ------- 2 1.0 4.1 14 69
+ 2.446019 2 3 udp 512 ------- 2 1.0 4.1 14 69
+ 2.454056 1 2 udp 512 ------- 2 1.0 4.1 19 78
- 2.454056 1 2 udp 512 ------- 2 1.0 4.1 19 78
r 2.454211 1 2 udp 512 ------- 2 1.0 4.1 15 70
+ 2.454211 2 3 udp 512 ------- 2 1.0 4.1 15 70
d 2.454211 2 3 udp 512 ------- 2 1.0 4.1 15 70
r 2.457124 3 5 udp 512 ------- 2 1.1 5.1 1 34
r 2.4601 0 2 tcp 1040 ------- 1 0.0 4.0 13 51
+ 2.4601 2 3 tcp 1040 ------- 1 0.0 4.0 13 51
d 2.4601 2 3 tcp 1040 ------- 1 0.0 4.0 13 51
r 2.460164 2 3 udp 512 ------- 2 1.1 5.1 4 42
+ 2.460164 3 5 udp 512 ------- 2 1.1 5.1 4 42
- 2.460164 3 5 udp 512 ------- 2 1.1 5.1 4 42
- 2.460804 3 4 udp 512 ------- 2 1.0 4.1 5 38
r 2.462403 1 2 udp 512 ------- 2 1.0 4.1 16 71
+ 2.462403 2 3 udp 512 ------- 2 1.0 4.1 16 71
d 2.462403 2 3 udp 512 ------- 2 1.0 4.1 16 71
+ 2.462597 1 2 udp 512 ------- 2 1.1 5.1 15 79
- 2.462597 1 2 udp 512 ------- 2 1.1 5.1 15 79
- 2.463204 2 3 udp 512 ------- 2 1.0 4.1 11 59
r 2.477604 3 4 udp 512 ------- 2 1.0 4.1 3 35
r 2.480644 2 3 udp 512 ------- 2 1.0 4.1 6 45
+ 2.480644 3 4 udp 512 ------- 2 1.0 4.1 6 45
- 2.481284 3 4 udp 512 ------- 2 1.0 4.1 6 45
- 2.483684 2 3 udp 512 ------- 2 1.0 4.1 13 64
- 2.4849 0 2 tcp 1040 ------- 1 0.1 5.0 9 62
r 2.486328 1 2 udp 512 ------- 2 1.0 4.1 17 74
+ 2.486328 2 3 udp 512 ------- 2 1.0 4.1 17 74
+ 2.492763 1 2 udp 512 ------- 2 1.1 5.1 16 80
- 2.492763 1 2 udp 512 ------- 2 1.1 5.1 16 80
r 2.49452 1 2 udp 512 ------- 2 1.1 5.1 13 75
+ 2.49452 2 3 udp 512 ------- 2 1.1 5.1 13 75
+ 2.49489 1 2 udp 512 ------- 2 1.0 4.1 20 81
+ 2.497457 1 2 udp 512 ------- 2 1.0 4.1 21 82
r 2.498084 3 5 udp 512 ------- 2 1.1 5.1 2 36
- 2.500955 1 2 udp 512 ------- 2 1.0 4.1 20 81
r 2.501124 2 3 udp 512 ------- 2 1.1 5.1 7 48
+ 2.501124 3 5 udp 512 ------- 2 1.1 5.1 7 48
- 2.501124 3 5 udp 512 ------- 2 1.1 5.1 7 48
r 2.5017 0 2 tcp 1040 ------- 1 0.0 4.0 14 52
+ 2.5017 2 3 tcp 1040 ------- 1 0.0 4.0 14 52
d 2.5017 2 3 tcp 1040 ------- 1 0.0 4.0 14 52
r 2.502712 1 2 udp 512 ------- 2 1.1 5.1 14 76
+ 2.502712 2 3 udp 512 ------- 2 1.1 5.1 14 76
d 2.502712 2 3 udp 512 ------- 2 1.1 5.1 14 76
- 2.504164 2 3 tcp 1040 ------- 1 0.0 4.0 12 47
- 2.509147 1 2 udp 512 ------- 2 1.0 4.1 21 82
r 2.513112 1 2 udp 512 ------- 2 1.0 4.1 18 77
+ 2.513112 2 3 udp 512 ------- 2 1.0 4.1 18 77
+ 2.523563 1 2 udp 512 ------- 2 1.1 5.1 17 83
- 2.523563 1 2 udp 512 ------- 2 1.1 5.1 17 83
- 2.5265 0 2 tcp 1040 ------- 1 0.1 5.0 10 63
+ 2.533794 1 2 udp 512 ------- 2 1.0 4.1 22 84
- 2.533794 1 2 udp 512 ------- 2 1.0 4.1 22 84
r 2.542724 2 3 tcp 1040 ------- 1 0.0 4.0 10 41
+ 2.542724 3 4 tcp 1040 ------- 1 0.0 4.0 10 41
- 2.542724 3 4 tcp 1040 ------- 1 0.0 4.0 10 41
r 2.5433 0 2 tcp 1040 ------- 1 0.1 5.0 7 55
+ 2.5433 2 3 tcp 1040 ------- 1 0.1 5.0 7 55
d 2.5433 2 3 tcp 1040 ------- 1 0.1 5.0 7 55
+ 2.545686 1 2 udp 512 ------- 2 1.1 5.1 18 85
- 2.545686 1 2 udp 512 ------- 2 1.1 5.1 18 85
- 2.545764 2 3 udp 512 ------- 2 1.0 4.1 14 69
+ 2.555558 1 2 udp 512 ------- 2 1.1 5.1 19 86
- 2.555558 1 2 udp 512 ------- 2 1.1 5.1 19 86
r 2.560804 3 4 tcp 1040 ------- 1 0.0 4.0 7 31
+ 2.560804 4 3 ack 40 ------- 1 4.0 0.0 7 87
- 2.560804 4 3 ack 40 ------- 1 4.0 0.0 7 87
r 2.562248 1 2 udp 512 ------- 2 1.0 4.1 19 78
+ 2.562248 2 3 udp 512 ------- 2 1.0 4.1 19 78
r 2.563204 2 3 udp 512 ------- 2 1.0 4.1 10 57
+ 2.563204 3 4 udp 512 ------- 2 1.0 4.1 10 57
+ 2.565539 1 2 udp 512 ------- 2 1.0 4.1 23 88
- 2.565539 1 2 udp 512 ------- 2 1.0 4.1 23 88
- 2.566244 2 3 udp 512 ------- 2 1.0 4.1 17 74
- 2.5681 0 2 tcp 1040 ------- 1 0.1 5.0 11 66
r 2.570789 1 2 udp 512 ------- 2 1.1 5.1 15 79
+ 2.570789 2 3 udp 512 ------- 2 1.1 5.1 15 79
+ 2.576988 1 2 udp 512 ------- 2 1.1 5.1 20 89
- 2.576988 1 2 udp 512 ------- 2 1.1 5.1 20 89
+ 2.579673 1 2 udp 512 ------- 2 1.0 4.1 24 90
r 2.580644 3 5 udp 512 ------- 2 1.1 5.1 4 42
r 2.581284 3 4 udp 512 ------- 2 1.0 4.1 5 38
r 2.583684 2 3 udp 512 ------- 2 1.0 4.1 11 59
+ 2.583684 3 4 udp 512 ------- 2 1.0 4.1 11 59
- 2.584324 3 4 udp 512 ------- 2 1.0 4.1 10 57
r 2.5849 0 2 tcp 1040 ------- 1 0.1 5.0 8 56
+ 2.5849 2 3 tcp 1040 ------- 1 0.1 5.0 8 56
d 2.5849 2 3 tcp 1040 ------- 1 0.1 5.0 8 56
- 2.58518 1 2 udp 512 ------- 2 1.0 4.1 24 90
- 2.586724 2 3 udp 512 ------- 2 1.1 5.1 13 75
r 2.600955 1 2 udp 512 ------- 2 1.1 5.1 16 80
+ 2.600955 2 3 udp 512 ------- 2 1.1 5.1 16 80
r 2.601764 3 4 udp 512 ------- 2 1.0 4.1 6 45
r 2.604164 2 3 udp 512 ------- 2 1.0 4.1 13 64
+ 2.604164 3 4 udp 512 ------- 2 1.0 4.1 13 64
- 2.604804 3 4 udp 512 ------- 2 1.0 4.1 11 59
- 2.607204 2 3 udp 512 ------- 2 1.0 4.1 18 77
r 2.609147 1 2 udp 512 ------- 2 1.0 4.1 20 81
+ 2.609147 2 3 udp 512 ------- 2 1.0 4.1 20 81
- 2.6097 0 2 tcp 1040 ------- 1 0.1 5.0 12 67
+ 2.613538 1 2 udp 512 ------- 2 1.1 5.1 21 91
- 2.613538 1 2 udp 512 ------- 2 1.1 5.1 21 91
r 2.617339 1 2 udp 512 ------- 2 1.0 4.1 21 82
+ 2.617339 2 3 udp 512 ------- 2 1.0 4.1 21 82
d 2.617339 2 3 udp 512 ------- 2 1.0 4.1 21 82
r 2.621604 3 5 udp 512 ------- 2 1.1 5.1 7 48
- 2.625284 3 4 udp 512 ------- 2 1.0 4.1 13 64
r 2.6265 0 2 tcp 1040 ------- 1 0.1 5.0 9 62
+ 2.6265 2 3 tcp 1040 ------- 1 0.1 5.0 9 62
d 2.6265 2 3 tcp 1040 ------- 1 0.1 5.0 9 62
- 2.627684 2 3 udp 512 ------- 2 1.0 4.1 19 78
+ 2.628072 1 2 udp 512 ------- 2 1.1 5.1 22 92
- 2.628072 1 2 udp 512 ------- 2 1.1 5.1 22 92
r 2.631755 1 2 udp 512 ------- 2 1.1 5.1 17 83
+ 2.631755 2 3 udp 512 ------- 2 1.1 5.1 17 83
r 2.641986 1 2 udp 512 ------- 2 1.0 4.1 22 84
+ 2.641986 2 3 udp 512 ------- 2 1.0 4.1 22 84
d 2.641986 2 3 udp 512 ------- 2 1.0 4.1 22 84
r 2.645764 2 3 tcp 1040 ------- 1 0.0 4.0 12 47
+ 2.645764 3 4 tcp 1040 ------- 1 0.0 4.0 12 47
- 2.645764 3 4 tcp 1040 ------- 1 0.0 4.0 12 47
+ 2.647994 1 2 udp 512 ------- 2 1.1 5.1 23 93
- 2.647994 1 2 udp 512 ------- 2 1.1 5.1 23 93
- 2.648164 2 3 udp 512 ------- 2 1.1 5.1 15 79
- 2.6513 0 2 tcp 1040 ------- 1 0.1 5.0 13 72
r 2.653878 1 2 udp 512 ------- 2 1.1 5.1 18 85
+ 2.653878 2 3 udp 512 ------- 2 1.1 5.1 18 85
+ 2.658637 1 2 udp 512 ------- 2 1.1 5.1 24 94
- 2.658637 1 2 udp 512 ------- 2 1.1 5.1 24 94
r 2.662404 4 3 ack 40 ------- 1 4.0 0.0 7 87
+ 2.662404 3 2 ack 40 ------- 1 4.0 0.0 7 87
- 2.662404 3 2 ack 40 ------- 1 4.0 0.0 7 87
r 2.66375 1 2 udp 512 ------- 2 1.1 5.1 19 86
+ 2.66375 2 3 udp 512 ------- 2 1.1 5.1 19 86
d 2.66375 2 3 udp 512 ------- 2 1.1 5.1 19 86
r 2.666244 2 3 udp 512 ------- 2 1.0 4.1 14 69
+ 2.666244 3 4 udp 512 ------- 2 1.0 4.1 14 69
r 2.6681 0 2 tcp 1040 ------- 1 0.1 5.0 10 63
+ 2.6681 2 3 tcp 1040 ------- 1 0.1 5.0 10 63
d 2.6681 2 3 tcp 1040 ------- 1 0.1 5.0 10 63
- 2.668644 2 3 udp 512 ------- 2 1.1 5.1 16 80
+ 2.671937 1 2 udp 512 ------- 2 1.0 4.1 25 95
- 2.671937 1 2 udp 512 ------- 2 1.0 4.1 25 95
r 2.673731 1 2 udp 512 ------- 2 1.0 4.1 23 88
+ 2.673731 2 3 udp 512 ------- 2 1.0 4.1 23 88
+ 2.683097 1 2 udp 512 ------- 2 1.0 4.1 26 96
- 2.683097 1 2 udp 512 ------- 2 1.0 4.1 26 96
r 2.684324 3 4 tcp 1040 ------- 1 0.0 4.0 10 41
+ 2.684324 4 3 ack 40 ------- 1 4.0 0.0 7 97
- 2.684324 4 3 ack 40 ------- 1 4.0 0.0 7 97
r 2.68518 1 2 udp 512 ------- 2 1.1 5.1 20 89
+ 2.68518 2 3 udp 512 ------- 2 1.1 5.1 20 89
d 2.68518 2 3 udp 512 ------- 2 1.1 5.1 20 89
r 2.686724 2 3 udp 512 ------- 2 1.0 4.1 17 74
+ 2.686724 3 4 udp 512 ------- 2 1.0 4.1 17 74
- 2.687364 3 4 udp 512 ------- 2 1.0 4.1 14 69
- 2.689124 2 3 udp 512 ------- 2 1.0 4.1 20 81
- 2.6929 0 2 tcp 1040 ------- 1 0.1 5.0 14 73
r 2.693372 1 2 udp 512 ------- 2 1.0 4.1 24 90
+ 2.693372 2 3 udp 512 ------- 2 1.0 4.1 24 90
+ 2.695534 1 2 udp 512 ------- 2 1.1 5.1 25 98
- 2.695534 1 2 udp 512 ------- 2 1.1 5.1 25 98
+ 2.69837 1 2 udp 512 ------- 2 1.0 4.1 27 99
+ 2.700292 1 2 udp 512 ------- 2 1.0 4.1 28 100
- 2.703726 1 2 udp 512 ------- 2 1.0 4.1 27 99
r 2.704804 3 4 udp 512 ------- 2 1.0 4.1 10 57
r 2.707204 2 3 udp 512 ------- 2 1.1 5.1 13 75
+ 2.707204 3 5 udp 512 ------- 2 1.1 5.1 13 75
- 2.707204 3 5 udp 512 ------- 2 1.1 5.1 13 75
- 2.707844 3 4 udp 512 ------- 2 1.0 4.1 17 74
- 2.709604 2 3 udp 512 ------- 2 1.1 5.1 17 83
r 2.7097 0 2 tcp 1040 ------- 1 0.1 5.0 11 66
+ 2.7097 2 3 tcp 1040 ------- 1 0.1 5.0 11 66
- 2.711918 1 2 udp 512 ------- 2 1.0 4.1 28 100
+ 2.712587 1 2 udp 512 ------- 2 1.1 5.1 26 101
+ 2.713134 1 2 udp 512 ------- 2 1.1 5.1 27 102
- 2.72011 1 2 udp 512 ------- 2 1.1 5.1 26 101
r 2.72173 1 2 udp 512 ------- 2 1.1 5.1 21 91
+ 2.72173 2 3 udp 512 ------- 2 1.1 5.1 21 91
d 2.72173 2 3 udp 512 ------- 2 1.1 5.1 21 91
r 2.725284 3 4 udp 512 ------- 2 1.0 4.1 11 59
r 2.727684 2 3 udp 512 ------- 2 1.0 4.1 18 77
+ 2.727684 3 4 udp 512 ------- 2 1.0 4.1 18 77
- 2.728302 1 2 udp 512 ------- 2 1.1 5.1 27 102
- 2.728324 3 4 udp 512 ------- 2 1.0 4.1 18 77
- 2.730084 2 3 udp 512 ------- 2 1.1 5.1 18 85
+ 2.733791 1 2 udp 512 ------- 2 1.1 5.1 28 103