V -t * -v 1.0a5 -a 0
A -t * -n 1 -p 0 -o 0x7fffffff -c 30 -a 1
A -t * -h 1 -m 1073741823 -s 0
c -t * -i 1 -n Blue
c -t * -i 2 -n Red
n -t * -a 4 -s 4 -S UP -v circle -c black -i black
n -t * -a 0 -s 0 -S UP -v circle -c black -i black
n -t * -a 5 -s 5 -S UP -v circle -c black -i black
n -t * -a 1 -s 1 -S UP -v circle -c black -i black
n -t * -a 2 -s 2 -S UP -v hexagon -c black -i black
n -t * -a 3 -s 3 -S UP -v square -c black -i black
l -t * -s 0 -d 2 -S UP -r 200000 -D 0.10000000000000001 -c black -o right-down
l -t * -s 1 -d 2 -S UP -r 500000 -D 0.10000000000000001 -c black -o right-up
l -t * -s 2 -d 3 -S UP -r 200000 -D 0.10000000000000001 -c black -o right
l -t * -s 3 -d 4 -S UP -r 200000 -D 0.10000000000000001 -c black -o right-up
l -t * -s 3 -d 5 -S UP -r 200000 -D 0.10000000000000001 -c black -o right-down
q -t * -s 2 -d 0 -a 0.5
q -t * -s 0 -d 2 -a 0.5
q -t * -s 2 -d 1 -a 0.5
q -t * -s 1 -d 2 -a 0.5
q -t * -s 2 -d 3 -a 0.5
n -t 0 -s 2 -S DLABEL -l "server" -L ""
n -t 0 -s 3 -S DLABEL -l "router" -L ""
n -t 0 -s 0 -S DLABEL -l "client" -L ""
n -t 0 -s 1 -S DLABEL -l "client" -L ""
n -t 0 -s 4 -S DLABEL -l "client" -L ""
n -t 0 -s 5 -S DLABEL -l "client" -L ""
+ -t 0.0001 -s 0 -d 2 -p tcp -e 40 -c 1 -i 0 -a 1 -x {0.0 4.0 0 ------- null}
- -t 0.0001 -s 0 -d 2 -p tcp -e 40 -c 1 -i 0 -a 1 -x {0.0 4.0 0 ------- null}
h -t 0.0001 -s 0 -d 2 -p tcp -e 40 -c 1 -i 0 -a 1 -x {0.0 4.0 -1 ------- null}
+ -t 0.01646635 -s 0 -d 2 -p tcp -e 40 -c 1 -i 1 -a 1 -x {0.1 5.0 0 ------- null}
- -t 0.01646635 -s 0 -d 2 -p tcp -e 40 -c 1 -i 1 -a 1 -x {0.1 5.0 0 ------- null}
h -t 0.01646635 -s 0 -d 2 -p tcp -e 40 -c 1 -i 1 -a 1 -x {0.1 5.0 -1 ------- null}
r -t 0.1017 -s 0 -d 2 -p tcp -e 40 -c 1 -i 0 -a 1 -x {0.0 4.0 0 ------- null}
+ -t 0.1017 -s 2 -d 3 -p tcp -e 40 -c 1 -i 0 -a 1 -x {0.0 4.0 0 ------- null}
- -t 0.1017 -s 2 -d 3 -p tcp -e 40 -c 1 -i 0 -a 1 -x {0.0 4.0 0 ------- null}
h -t 0.1017 -s 2 -d 3 -p tcp -e 40 -c 1 -i 0 -a 1 -x {0.0 4.0 -1 ------- null}
r -t 0.11806635 -s 0 -d 2 -p tcp -e 40 -c 1 -i 1 -a 1 -x {0.1 5.0 0 ------- null}
+ -t 0.11806635 -s 2 -d 3 -p tcp -e 40 -c 1 -i 1 -a 1 -x {0.1 5.0 0 ------- null}
- -t 0.11806635 -s 2 -d 3 -p tcp -e 40 -c 1 -i 1 -a 1 -x {0.1 5.0 0 ------- null}
h -t 0.11806635 -s 2 -d 3 -p tcp -e 40 -c 1 -i 1 -a 1 -x {0.1 5.0 -1 ------- null}
r -t 0.2033 -s 2 -d 3 -p tcp -e 40 -c 1 -i 0 -a 1 -x {0.0 4.0 0 ------- null}
+ -t 0.2033 -s 3 -d 4 -p tcp -e 40 -c 1 -i 0 -a 1 -x {0.0 4.0 0 ------- null}
- -t 0.2033 -s 3 -d 4 -p tcp -e 40 -c 1 -i 0 -a 1 -x {0.0 4.0 0 ------- null}
h -t 0.2033 -s 3 -d 4 -p tcp -e 40 -c 1 -i 0 -a 1 -x {0.0 4.0 -1 ------- null}
r -t 0.21966635 -s 2 -d 3 -p tcp -e 40 -c 1 -i 1 -a 1 -x {0.1 5.0 0 ------- null}
+ -t 0.21966635 -s 3 -d 5 -p tcp -e 40 -c 1 -i 1 -a 1 -x {0.1 5.0 0 ------- null}
- -t 0.21966635 -s 3 -d 5 -p tcp -e 40 -c 1 -i 1 -a 1 -x {0.1 5.0 0 ------- null}
h -t 0.21966635 -s 3 -d 5 -p tcp -e 40 -c 1 -i 1 -a 1 -x {0.1 5.0 -1 ------- null}
r -t 0.3049 -s 3 -d 4 -p tcp -e 40 -c 1 -i 0 -a 1 -x {0.0 4.0 0 ------- null}
+ -t 0.3049 -s 4 -d 3 -p ack -e 40 -c 1 -i 2 -a 1 -x {4.0 0.0 0 ------- null}
- -t 0.3049 -s 4 -d 3 -p ack -e 40 -c 1 -i 2 -a 1 -x {4.0 0.0 0 ------- null}
h -t 0.3049 -s 4 -d 3 -p ack -e 40 -c 1 -i 2 -a 1 -x {4.0 0.0 -1 ------- null}
r -t 0.32126635 -s 3 -d 5 -p tcp -e 40 -c 1 -i 1 -a 1 -x {0.1 5.0 0 ------- null}
+ -t 0.32126635 -s 5 -d 3 -p ack -e 40 -c 1 -i 3 -a 1 -x {5.0 0.1 0 ------- null}
- -t 0.32126635 -s 5 -d 3 -p ack -e 40 -c 1 -i 3 -a 1 -x {5.0 0.1 0 ------- null}
h -t 0.32126635 -s 5 -d 3 -p ack -e 40 -c 1 -i 3 -a 1 -x {5.0 0.1 -1 ------- null}
r -t 0.4065 -s 4 -d 3 -p ack -e 40 -c 1 -i 2 -a 1 -x {4.0 0.0 0 ------- null}
+ -t 0.4065 -s 3 -d 2 -p ack -e 40 -c 1 -i 2 -a 1 -x {4.0 0.0 0 ------- null}
- -t 0.4065 -s 3 -d 2 -p ack -e 40 -c 1 -i 2 -a 1 -x {4.0 0.0 0 ------- null}
h -t 0.4065 -s 3 -d 2 -p ack -e 40 -c 1 -i 2 -a 1 -x {4.0 0.0 -1 ------- null}
r -t 0.42286635 -s 5 -d 3 -p ack -e 40 -c 1 -i 3 -a 1 -x {5.0 0.1 0 ------- null}
+ -t 0.42286635 -s 3 -d 2 -p ack -e 40 -c 1 -i 3 -a 1 -x {5.0 0.1 0 ------- null}
- -t 0.42286635 -s 3 -d 2 -p ack -e 40 -c 1 -i 3 -a 1 -x {5.0 0.1 0 ------- null}
h -t 0.42286635 -s 3 -d 2 -p ack -e 40 -c 1 -i 3 -a 1 -x {5.0 0.1 -1 ------- null}
r -t 0.5081 -s 3 -d 2 -p ack -e 40 -c 1 -i 2 -a 1 -x {4.0 0.0 0 ------- null}
+ -t 0.5081 -s 2 -d 0 -p ack -e 40 -c 1 -i 2 -a 1 -x {4.0 0.0 0 ------- null}
- -t 0.5081 -s 2 -d 0 -p ack -e 40 -c 1 -i 2 -a 1 -x {4.0 0.0 0 ------- null}
h -t 0.5081 -s 2 -d 0 -p ack -e 40 -c 1 -i 2 -a 1 -x {4.0 0.0 -1 ------- null}
r -t 0.52446635 -s 3 -d 2 -p ack -e 40 -c 1 -i 3 -a 1 -x {5.0 0.1 0 ------- null}
+ -t 0.52446635 -s 2 -d 0 -p ack -e 40 -c 1 -i 3 -a 1 -x {5.0 0.1 0 ------- null}
- -t 0.52446635 -s 2 -d 0 -p ack -e 40 -c 1 -i 3 -a 1 -x {5.0 0.1 0 ------- null}
h -t 0.52446635 -s 2 -d 0 -p ack -e 40 -c 1 -i 3 -a 1 -x {5.0 0.1 -1 ------- null}
r -t 0.6097 -s 2 -d 0 -p ack -e 40 -c 1 -i 2 -a 1 -x {4.0 0.0 0 ------- null}
+ -t 0.6097 -s 0 -d 2 -p tcp -e 1040 -c 1 -i 4 -a 1 -x {0.0 4.0 1 ------- null}
- -t 0.6097 -s 0 -d 2 -p tcp -e 1040 -c 1 -i 4 -a 1 -x {0.0 4.0 1 ------- null}
h -t 0.6097 -s 0 -d 2 -p tcp -e 1040 -c 1 -i 4 -a 1 -x {0.0 4.0 -1 ------- null}
+ -t 0.6097 -s 0 -d 2 -p tcp -e 1040 -c 1 -i 5 -a 1 -x {0.0 4.0 2 ------- null}
r -t 0.62606635 -s 2 -d 0 -p ack -e 40 -c 1 -i 3 -a 1 -x {5.0 0.1 0 ------- null}
+ -t 0.62606635 -s 0 -d 2 -p tcp -e 1040 -c 1 -i 6 -a 1 -x {0.1 5.0 1 ------- null}
+ -t 0.62606635 -s 0 -d 2 -p tcp -e 1040 -c 1 -i 7 -a 1 -x {0.1 5.0 2 ------- null}
- -t 0.6513 -s 0 -d 2 -p tcp -e 1040 -c 1 -i 5 -a 1 -x {0.0 4.0 2 ------- null}
h -t 0.6513 -s 0 -d 2 -p tcp -e 1040 -c 1 -i 5 -a 1 -x {0.0 4.0 -1 ------- null}
- -t 0.6929 -s 0 -d 2 -p tcp -e 1040 -c 1 -i 6 -a 1 -x {0.1 5.0 1 ------- null}
h -t 0.6929 -s 0 -d 2 -p tcp -e 1040 -c 1 -i 6 -a 1 -x {0.1 5.0 -1 ------- null}
- -t 0.7345 -s 0 -d 2 -p tcp -e 1040 -c 1 -i 7 -a 1 -x {0.1 5.0 2 ------- null}
h -t 0.7345 -s 0 -d 2 -p tcp -e 1040 -c 1 -i 7 -a 1 -x {0.1 5.0 -1 ------- null}
r -t 0.7513 -s 0 -d 2 -p tcp -e 1040 -c 1 -i 4 -a 1 -x {0.0 4.0 1 ------- null}
+ -t 0.7513 -s 2 -d 3 -p tcp -e 1040 -c 1 -i 4 -a 1 -x {0.0 4.0 1 ------- null}
- -t 0.7513 -s 2 -d 3 -p tcp -e 1040 -c 1 -i 4 -a 1 -x {0.0 4.0 1 ------- null}
h -t 0.7513 -s 2 -d 3 -p tcp -e 1040 -c 1 -i 4 -a 1 -x {0.0 4.0 -1 ------- null}
r -t 0.7929 -s 0 -d 2 -p tcp -e 1040 -c 1 -i 5 -a 1 -x {0.0 4.0 2 ------- null}
+ -t 0.7929 -s 2 -d 3 -p tcp -e 1040 -c 1 -i 5 -a 1 -x {0.0 4.0 2 ------- null}
- -t 0.7929 -s 2 -d 3 -p tcp -e 1040 -c 1 -i 5 -a 1 -x {0.0 4.0 2 ------- null}
h -t 0.7929 -s 2 -d 3 -p tcp -e 1040 -c 1 -i 5 -a 1 -x {0.0 4.0 -1 ------- null}
r -t 0.8345 -s 0 -d 2 -p tcp -e 1040 -c 1 -i 6 -a 1 -x {0.1 5.0 1 ------- null}
+ -t 0.8345 -s 2 -d 3 -p tcp -e 1040 -c 1 -i 6 -a 1 -x {0.1 5.0 1 ------- null}
- -t 0.8345 -s 2 -d 3 -p tcp -e 1040 -c 1 -i 6 -a 1 -x {0.1 5.0 1 ------- null}
h -t 0.8345 -s 2 -d 3 -p tcp -e 1040 -c 1 -i 6 -a 1 -x {0.1 5.0 -1 ------- null}
r -t 0.8761 -s 0 -d 2 -p tcp -e 1040 -c 1 -i 7 -a 1 -x {0.1 5.0 2 ------- null}
+ -t 0.8761 -s 2 -d 3 -p tcp -e 1040 -c 1 -i 7 -a 1 -x {0.1 5.0 2 ------- null}
- -t 0.8761 -s 2 -d 3 -p tcp -e 1040 -c 1 -i 7 -a 1 -x {0.1 5.0 2 ------- null}
h -t 0.8761 -s 2 -d 3 -p tcp -e 1040 -c 1 -i 7 -a 1 -x {0.1 5.0 -1 ------- null}
r -t 0.8929 -s 2 -d 3 -p tcp -e 1040 -c 1 -i 4 -a 1 -x {0.0 4.0 1 ------- null}
+ -t 0.8929 -s 3 -d 4 -p tcp -e 1040 -c 1 -i 4 -a 1 -x {0.0 4.0 1 ------- null}
- -t 0.8929 -s 3 -d 4 -p tcp -e 1040 -c 1 -i 4 -a 1 -x {0.0 4.0 1 ------- null}
h -t 0.8929 -s 3 -d 4 -p tcp -e 1040 -c 1 -i 4 -a 1 -x {0.0 4.0 -1 ------- null}
r -t 0.9345 -s 2 -d 3 -p tcp -e 1040 -c 1 -i 5 -a 1 -x {0.0 4.0 2 ------- null}
+ -t 0.9345 -s 3 -d 4 -p tcp -e 1040 -c 1 -i 5 -a 1 -x {0.0 4.0 2 ------- null}
- -t 0.9345 -s 3 -d 4 -p tcp -e 1040 -c 1 -i 5 -a 1 -x {0.0 4.0 2 ------- null}
h -t 0.9345 -s 3 -d 4 -p tcp -e 1040 -c 1 -i 5 -a 1 -x {0.0 4.0 -1 ------- null}
r -t 0.9761 -s 2 -d 3 -p tcp -e 1040 -c 1 -i 6 -a 1 -x {0.1 5.0 1 ------- null}
+ -t 0.9761 -s 3 -d 5 -p tcp -e 1040 -c 1 -i 6 -a 1 -x {0.1 5.0 1 ------- null}
- -t 0.9761 -s 3 -d 5 -p tcp -e 1040 -c 1 -i 6 -a 1 -x {0.1 5.0 1 ------- null}
h -t 0.9761 -s 3 -d 5 -p tcp -e 1040 -c 1 -i 6 -a 1 -x {0.1 5.0 -1 ------- null}
r -t 1.0177 -s 2 -d 3 -p tcp -e 1040 -c 1 -i 7 -a 1 -x {0.1 5.0 2 ------- null}
+ -t 1.0177 -s 3 -d 5 -p tcp -e 1040 -c 1 -i 7 -a 1 -x {0.1 5.0 2 ------- null}
- -t 1.0177 -s 3 -d 5 -p tcp -e 1040 -c 1 -i 7 -a 1 -x {0.1 5.0 2 ------- null}
h -t 1.0177 -s 3 -d 5 -p tcp -e 1040 -c 1 -i 7 -a 1 -x {0.1 5.0 -1 ------- null}
r -t 1.0345 -s 3 -d 4 -p tcp -e 1040 -c 1 -i 4 -a 1 -x {0.0 4.0 1 ------- null}
+ -t 1.0345 -s 4 -d 3 -p ack -e 40 -c 1 -i 8 -a 1 -x {4.0 0.0 1 ------- null}
- -t 1.0345 -s 4 -d 3 -p ack -e 40 -c 1 -i 8 -a 1 -x {4.0 0.0 1 ------- null}
h -t 1.0345 -s 4 -d 3 -p ack -e 40 -c 1 -i 8 -a 1 -x {4.0 0.0 -1 ------- null}
r -t 1.0761 -s 3 -d 4 -p tcp -e 1040 -c 1 -i 5 -a 1 -x {0.0 4.0 2 ------- null}
+ -t 1.0761 -s 4 -d 3 -p ack -e 40 -c 1 -i 9 -a 1 -x {4.0 0.0 2 ------- null}
- -t 1.0761 -s 4 -d 3 -p ack -e 40 -c 1 -i 9 -a 1 -x {4.0 0.0 2 ------- null}
h -t 1.0761 -s 4 -d 3 -p ack -e 40 -c 1 -i 9 -a 1 -x {4.0 0.0 -1 ------- null}
r -t 1.1177 -s 3 -d 5 -p tcp -e 1040 -c 1 -i 6 -a 1 -x {0.1 5.0 1 ------- null}
+ -t 1.1177 -s 5 -d 3 -p ack -e 40 -c 1 -i 10 -a 1 -x {5.0 0.1 1 ------- null}
- -t 1.1177 -s 5 -d 3 -p ack -e 40 -c 1 -i 10 -a 1 -x {5.0 0.1 1 ------- null}
h -t 1.1177 -s 5 -d 3 -p ack -e 40 -c 1 -i 10 -a 1 -x {5.0 0.1 -1 ------- null}
r -t 1.1361 -s 4 -d 3 -p ack -e 40 -c 1 -i 8 -a 1 -x {4.0 0.0 1 ------- null}
+ -t 1.1361 -s 3 -d 2 -p ack -e 40 -c 1 -i 8 -a 1 -x {4.0 0.0 1 ------- null}
- -t 1.1361 -s 3 -d 2 -p ack -e 40 -c 1 -i 8 -a 1 -x {4.0 0.0 1 ------- null}
h -t 1.1361 -s 3 -d 2 -p ack -e 40 -c 1 -i 8 -a 1 -x {4.0 0.0 -1 ------- null}
r -t 1.1593 -s 3 -d 5 -p tcp -e 1040 -c 1 -i 7 -a 1 -x {0.1 5.0 2 ------- null}
+ -t 1.1593 -s 5 -d 3 -p ack -e 40 -c 1 -i 11 -a 1 -x {5.0 0.1 2 ------- null}
- -t 1.1593 -s 5 -d 3 -p ack -e 40 -c 1 -i 11 -a 1 -x {5.0 0.1 2 ------- null}
h -t 1.1593 -s 5 -d 3 -p ack -e 40 -c 1 -i 11 -a 1 -x {5.0 0.1 -1 ------- null}
r -t 1.1777 -s 4 -d 3 -p ack -e 40 -c 1 -i 9 -a 1 -x {4.0 0.0 2 ------- null}
+ -t 1.1777 -s 3 -d 2 -p ack -e 40 -c 1 -i 9 -a 1 -x {4.0 0.0 2 ------- null}
- -t 1.1777 -s 3 -d 2 -p ack -e 40 -c 1 -i 9 -a 1 -x {4.0 0.0 2 ------- null}
h -t 1.1777 -s 3 -d 2 -p ack -e 40 -c 1 -i 9 -a 1 -x {4.0 0.0 -1 ------- null}
r -t 1.2193 -s 5 -d 3 -p ack -e 40 -c 1 -i 10 -a 1 -x {5.0 0.1 1 ------- null}
+ -t 1.2193 -s 3 -d 2 -p ack -e 40 -c 1 -i 10 -a 1 -x {5.0 0.1 1 ------- null}
- -t 1.2193 -s 3 -d 2 -p ack -e 40 -c 1 -i 10 -a 1 -x {5.0 0.1 1 ------- null}
h -t 1.2193 -s 3 -d 2 -p ack -e 40 -c 1 -i 10 -a 1 -x {5.0 0.1 -1 ------- null}
r -t 1.2377 -s 3 -d 2 -p ack -e 40 -c 1 -i 8 -a 1 -x {4.0 0.0 1 ------- null}
+ -t 1.2377 -s 2 -d 0 -p ack -e 40 -c 1 -i 8 -a 1 -x {4.0 0.0 1 ------- null}
- -t 1.2377 -s 2 -d 0 -p ack -e 40 -c 1 -i 8 -a 1 -x {4.0 0.0 1 ------- null}
h -t 1.2377 -s 2 -d 0 -p ack -e 40 -c 1 -i 8 -a 1 -x {4.0 0.0 -1 ------- null}
r -t 1.2609 -s 5 -d 3 -p ack -e 40 -c 1 -i 11 -a 1 -x {5.0 0.1 2 ------- null}
+ -t 1.2609 -s 3 -d 2 -p ack -e 40 -c 1 -i 11 -a 1 -x {5.0 0.1 2 ------- null}
- -t 1.2609 -s 3 -d 2 -p ack -e 40 -c 1 -i 11 -a 1 -x {5.0 0.1 2 ------- null}
h -t 1.2609 -s 3 -d 2 -p ack -e 40 -c 1 -i 11 -a 1 -x {5.0 0.1 -1 ------- null}
r -t 1.2793 -s 3 -d 2 -p ack -e 40 -c 1 -i 9 -a 1 -x {4.0 0.0 2 ------- null}
+ -t 1.2793 -s 2 -d 0 -p ack -e 40 -c 1 -i 9 -a 1 -x {4.0 0.0 2 ------- null}
- -t 1.2793 -s 2 -d 0 -p ack -e 40 -c 1 -i 9 -a 1 -x {4.0 0.0 2 ------- null}
h -t 1.2793 -s 2 -d 0 -p ack -e 40 -c 1 -i 9 -a 1 -x {4.0 0.0 -1 ------- null}
r -t 1.3209 -s 3 -d 2 -p ack -e 40 -c 1 -i 10 -a 1 -x {5.0 0.1 1 ------- null}
+ -t 1.3209 -s 2 -d 0 -p ack -e 40 -c 1 -i 10 -a 1 -x {5.0 0.1 1 ------- null}
- -t 1.3209 -s 2 -d 0 -p ack -e 40 -c 1 -i 10 -a 1 -x {5.0 0.1 1 ------- null}
h -t 1.3209 -s 2 -d 0 -p ack -e 40 -c 1 -i 10 -a 1 -x {5.0 0.1 -1 ------- null}
r -t 1.3393 -s 2 -d 0 -p ack -e 40 -c 1 -i 8 -a 1 -x {4.0 0.0 1 ------- null}
+ -t 1.3393 -s 0 -d 2 -p tcp -e 1040 -c 1 -i 12 -a 1 -x {0.0 4.0 3 ------- null}
- -t 1.3393 -s 0 -d 2 -p tcp -e 1040 -c 1 -i 12 -a 1 -x {0.0 4.0 3 ------- null}
h -t 1.3393 -s 0 -d 2 -p tcp -e 1040 -c 1 -i 12 -a 1 -x {0.0 4.0 -1 ------- null}
+ -t 1.3393 -s 0 -d 2 -p tcp -e 1040 -c 1 -i 13 -a 1 -x {0.0 4.0 4 ------- null}
r -t 1.3625 -s 3 -d 2 -p ack -e 40 -c 1 -i 11 -a 1 -x {5.0 0.1 2 ------- null}
+ -t 1.3625 -s 2 -d 0 -p ack -e 40 -c 1 -i 11 -a 1 -x {5.0 0.1 2 ------- null}
- -t 1.3625 -s 2 -d 0 -p ack -e 40 -c 1 -i 11 -a 1 -x {5.0 0.1 2 ------- null}
h -t 1.3625 -s 2 -d 0 -p ack -e 40 -c 1 -i 11 -a 1 -x {5.0 0.1 -1 ------- null}
r -t 1.3809 -s 2 -d 0 -p ack -e 40 -c 1 -i 9 -a 1 -x {4.0 0.0 2 ------- null}
+ -t 1.3809 -s 0 -d 2 -p tcp -e 1040 -c 1 -i 14 -a 1 -x {0.0 4.0 5 ------- null}
+ -t 1.3809 -s 0 -d 2 -p tcp -e 1040 -c 1 -i 15 -a 1 -x {0.0 4.0 6 ------- null}
- -t 1.3809 -s 0 -d 2 -p tcp -e 1040 -c 1 -i 13 -a 1 -x {0.0 4.0 4 ------- null}
h -t 1.3809 -s 0 -d 2 -p tcp -e 1040 -c 1 -i 13 -a 1 -x {0.0 4.0 -1 ------- null}
r -t 1.4225 -s 2 -d 0 -p ack -e 40 -c 1 -i 10 -a 1 -x {5.0 0.1 1 ------- null}
+ -t 1.4225 -s 0 -d 2 -p tcp -e 1040 -c 1 -i 16 -a 1 -x {0.1 5.0 3 ------- null}
+ -t 1.4225 -s 0 -d 2 -p tcp -e 1040 -c 1 -i 17 -a 1 -x {0.1 5.0 4 ------- null}
- -t 1.4225 -s 0 -d 2 -p tcp -e 1040 -c 1 -i 14 -a 1 -x {0.0 4.0 5 ------- null}
h -t 1.4225 -s 0 -d 2 -p tcp -e 1040 -c 1 -i 14 -a 1 -x {0.0 4.0 -1 ------- null}
r -t 1.4641 -s 2 -d 0 -p ack -e 40 -c 1 -i 11 -a 1 -x {5.0 0.1 2 ------- null}
+ -t 1.4641 -s 0 -d 2 -p tcp -e 1040 -c 1 -i 18 -a 1 -x {0.1 5.0 5 ------- null}
+ -t 1.4641 -s 0 -d 2 -p tcp -e 1040 -c 1 -i 19 -a 1 -x {0.1 5.0 6 ------- null}
- -t 1.4641 -s 0 -d 2 -p tcp -e 1040 -c 1 -i 15 -a 1 -x {0.0 4.0 6 ------- null}
h -t 1.4641 -s 0 -d 2 -p tcp -e 1040 -c 1 -i 15 -a 1 -x {0.0 4.0 -1 ------- null}
r -t 1.4809 -s 0 -d 2 -p tcp -e 1040 -c 1 -i 12 -a 1 -x {0.0 4.0 3 ------- null}
+ -t 1.4809 -s 2 -d 3 -p tcp -e 1040 -c 1 -i 12 -a 1 -x {0.0 4.0 3 ------- null}
- -t 1.4809 -s 2 -d 3 -p tcp -e 1040 -c 1 -i 12 -a 1 -x {0.0 4.0 3 ------- null}
h -t 1.4809 -s 2 -d 3 -p tcp -e 1040 -c 1 -i 12 -a 1 -x {0.0 4.0 -1 ------- null}
- -t 1.5057 -s 0 -d 2 -p tcp -e 1040 -c 1 -i 16 -a 1 -x {0.1 5.0 3 ------- null}
h -t 1.5057 -s 0 -d 2 -p tcp -e 1040 -c 1 -i 16 -a 1 -x {0.1 5.0 -1 ------- null}
r -t 1.5225 -s 0 -d 2 -p tcp -e 1040 -c 1 -i 13 -a 1 -x {0.0 4.0 4 ------- null}
+ -t 1.5225 -s 2 -d 3 -p tcp -e 1040 -c 1 -i 13 -a 1 -x {0.0 4.0 4 ------- null}
- -t 1.5225 -s 2 -d 3 -p tcp -e 1040 -c 1 -i 13 -a 1 -x {0.0 4.0 4 ------- null}
h -t 1.5225 -s 2 -d 3 -p tcp -e 1040 -c 1 -i 13 -a 1 -x {0.0 4.0 -1 ------- null}
- -t 1.5473 -s 0 -d 2 -p tcp -e 1040 -c 1 -i 17 -a 1 -x {0.1 5.0 4 ------- null}
h -t 1.5473 -s 0 -d 2 -p tcp -e 1040 -c 1 -i 17 -a 1 -x {0.1 5.0 -1 ------- null}
r -t 1.5641 -s 0 -d 2 -p tcp -e 1040 -c 1 -i 14 -a 1 -x {0.0 4.0 5 ------- null}
+ -t 1.5641 -s 2 -d 3 -p tcp -e 1040 -c 1 -i 14 -a 1 -x {0.0 4.0 5 ------- null}
- -t 1.5641 -s 2 -d 3 -p tcp -e 1040 -c 1 -i 14 -a 1 -x {0.0 4.0 5 ------- null}
h -t 1.5641 -s 2 -d 3 -p tcp -e 1040 -c 1 -i 14 -a 1 -x {0.0 4.0 -1 ------- null}
- -t 1.5889 -s 0 -d 2 -p tcp -e 1040 -c 1 -i 18 -a 1 -x {0.1 5.0 5 ------- null}
h -t 1.5889 -s 0 -d 2 -p tcp -e 1040 -c 1 -i 18 -a 1 -x {0.1 5.0 -1 ------- null}
r -t 1.6057 -s 0 -d 2 -p tcp -e 1040 -c 1 -i 15 -a 1 -x {0.0 4.0 6 ------- null}
+ -t 1.6057 -s 2 -d 3 -p tcp -e 1040 -c 1 -i 15 -a 1 -x {0.0 4.0 6 ------- null}
- -t 1.6057 -s 2 -d 3 -p tcp -e 1040 -c 1 -i 15 -a 1 -x {0.0 4.0 6 ------- null}
h -t 1.6057 -s 2 -d 3 -p tcp -e 1040 -c 1 -i 15 -a 1 -x {0.0 4.0 -1 ------- null}
r -t 1.6225 -s 2 -d 3 -p tcp -e 1040 -c 1 -i 12 -a 1 -x {0.0 4.0 3 ------- null}
+ -t 1.6225 -s 3 -d 4 -p tcp -e 1040 -c 1 -i 12 -a 1 -x {0.0 4.0 3 ------- null}
- -t 1.6225 -s 3 -d 4 -p tcp -e 1040 -c 1 -i 12 -a 1 -x {0.0 4.0 3 ------- null}
h -t 1.6225 -s 3 -d 4 -p tcp -e 1040 -c 1 -i 12 -a 1 -x {0.0 4.0 -1 ------- null}
- -t 1.6305 -s 0 -d 2 -p tcp -e 1040 -c 1 -i 19 -a 1 -x {0.1 5.0 6 ------- null}
h -t 1.6305 -s 0 -d 2 -p tcp -e 1040 -c 1 -i 19 -a 1 -x {0.1 5.0 -1 ------- null}
r -t 1.6473 -s 0 -d 2 -p tcp -e 1040 -c 1 -i 16 -a 1 -x {0.1 5.0 3 ------- null}
+ -t 1.6473 -s 2 -d 3 -p tcp -e 1040 -c 1 -i 16 -a 1 -x {0.1 5.0 3 ------- null}
- -t 1.6473 -s 2 -d 3 -p tcp -e 1040 -c 1 -i 16 -a 1 -x {0.1 5.0 3 ------- null}
h -t 1.6473 -s 2 -d 3 -p tcp -e 1040 -c 1 -i 16 -a 1 -x {0.1 5.0 -1 ------- null}
r -t 1.6641 -s 2 -d 3 -p tcp -e 1040 -c 1 -i 13 -a 1 -x {0.0 4.0 4 ------- null}
+ -t 1.6641 -s 3 -d 4 -p tcp -e 1040 -c 1 -i 13 -a 1 -x {0.0 4.0 4 ------- null}
- -t 1.6641 -s 3 -d 4 -p tcp -e 1040 -c 1 -i 13 -a 1 -x {0.0 4.0 4 ------- null}
h -t 1.6641 -s 3 -d 4 -p tcp -e 1040 -c 1 -i 13 -a 1 -x {0.0 4.0 -1 ------- null}
r -t 1.6889 -s 0 -d 2 -p tcp -e 1040 -c 1 -i 17 -a 1 -x {0.1 5.0 4 ------- null}
+ -t 1.6889 -s 2 -d 3 -p tcp -e 1040 -c 1 -i 17 -a 1 -x {0.1 5.0 4 ------- null}
- -t 1.6889 -s 2 -d 3 -p tcp -e 1040 -c 1 -i 17 -a 1 -x {0.1 5.0 4 ------- null}
h -t 1.6889 -s 2 -d 3 -p tcp -e 1040 -c 1 -i 17 -a 1 -x {0.1 5.0 -1 ------- null}
r -t 1.7057 -s 2 -d 3 -p tcp -e 1040 -c 1 -i 14 -a 1 -x {0.0 4.0 5 ------- null}
+ -t 1.7057 -s 3 -d 4 -p tcp -e 1040 -c 1 -i 14 -a 1 -x {0.0 4.0 5 ------- null}
- -t 1.7057 -s 3 -d 4 -p tcp -e 1040 -c 1 -i 14 -a 1 -x {0.0 4.0 5 ------- null}
h -t 1.7057 -s 3 -d 4 -p tcp -e 1040 -c 1 -i 14 -a 1 -x {0.0 4.0 -1 ------- null}
r -t 1.7305 -s 0 -d 2 -p tcp -e 1040 -c 1 -i 18 -a 1 -x {0.1 5.0 5 ------- null}
+ -t 1.7305 -s 2 -d 3 -p tcp -e 1040 -c 1 -i 18 -a 1 -x {0.1 5.0 5 ------- null}
- -t 1.7305 -s 2 -d 3 -p tcp -e 1040 -c 1 -i 18 -a 1 -x {0.1 5.0 5 ------- null}
h -t 1.7305 -s 2 -d 3 -p tcp -e 1040 -c 1 -i 18 -a 1 -x {0.1 5.0 -1 ------- null}
r -t 1.7473 -s 2 -d 3 -p tcp -e 1040 -c 1 -i 15 -a 1 -x {0.0 4.0 6 ------- null}
+ -t 1.7473 -s 3 -d 4 -p tcp -e 1040 -c 1 -i 15 -a 1 -x {0.0 4.0 6 ------- null}
- -t 1.7473 -s 3 -d 4 -p tcp -e 1040 -c 1 -i 15 -a 1 -x {0.0 4.0 6 ------- null}
h -t 1.7473 -s 3 -d 4 -p tcp -e 1040 -c 1 -i 15 -a 1 -x {0.0 4.0 -1 ------- null}
r -t 1.7641 -s 3 -d 4 -p tcp -e 1040 -c 1 -i 12 -a 1 -x {0.0 4.0 3 ------- null}
+ -t 1.7641 -s 4 -d 3 -p ack -e 40 -c 1 -i 20 -a 1 -x {4.0 0.0 3 ------- null}
- -t 1.7641 -s 4 -d 3 -p ack -e 40 -c 1 -i 20 -a 1 -x {4.0 0.0 3 ------- null}
h -t 1.7641 -s 4 -d 3 -p ack -e 40 -c 1 -i 20 -a 1 -x {4.0 0.0 -1 ------- null}
r -t 1.7721 -s 0 -d 2 -p tcp -e 1040 -c 1 -i 19 -a 1 -x {0.1 5.0 6 ------- null}
+ -t 1.7721 -s 2 -d 3 -p tcp -e 1040 -c 1 -i 19 -a 1 -x {0.1 5.0 6 ------- null}
- -t 1.7721 -s 2 -d 3 -p tcp -e 1040 -c 1 -i 19 -a 1 -x {0.1 5.0 6 ------- null}
h -t 1.7721 -s 2 -d 3 -p tcp -e 1040 -c 1 -i 19 -a 1 -x {0.1 5.0 -1 ------- null}
r -t 1.7889 -s 2 -d 3 -p tcp -e 1040 -c 1 -i 16 -a 1 -x {0.1 5.0 3 ------- null}
+ -t 1.7889 -s 3 -d 5 -p tcp -e 1040 -c 1 -i 16 -a 1 -x {0.1 5.0 3 ------- null}
- -t 1.7889 -s 3 -d 5 -p tcp -e 1040 -c 1 -i 16 -a 1 -x {0.1 5.0 3 ------- null}
h -t 1.7889 -s 3 -d 5 -p tcp -e 1040 -c 1 -i 16 -a 1 -x {0.1 5.0 -1 ------- null}
r -t 1.8057 -s 3 -d 4 -p tcp -e 1040 -c 1 -i 13 -a 1 -x {0.0 4.0 4 ------- null}
+ -t 1.8057 -s 4 -d 3 -p ack -e 40 -c 1 -i 21 -a 1 -x {4.0 0.0 4 ------- null}
- -t 1.8057 -s 4 -d 3 -p ack -e 40 -c 1 -i 21 -a 1 -x {4.0 0.0 4 ------- null}
h -t 1.8057 -s 4 -d 3 -p ack -e 40 -c 1 -i 21 -a 1 -x {4.0 0.0 -1 ------- null}
r -t 1.8305 -s 2 -d 3 -p tcp -e 1040 -c 1 -i 17 -a 1 -x {0.1 5.0 4 ------- null}
+ -t 1.8305 -s 3 -d 5 -p tcp -e 1040 -c 1 -i 17 -a 1 -x {0.1 5.0 4 ------- null}
- -t 1.8305 -s 3 -d 5 -p tcp -e 1040 -c 1 -i 17 -a 1 -x {0.1 5.0 4 ------- null}
h -t 1.8305 -s 3 -d 5 -p tcp -e 1040 -c 1 -i 17 -a 1 -x {0.1 5.0 -1 ------- null}
r -t 1.8473 -s 3 -d 4 -p tcp -e 1040 -c 1 -i 14 -a 1 -x {0.0 4.0 5 ------- null}
+ -t 1.8473 -s 4 -d 3 -p ack -e 40 -c 1 -i 22 -a 1 -x {4.0 0.0 5 ------- null}
- -t 1.8473 -s 4 -d 3 -p ack -e 40 -c 1 -i 22 -a 1 -x {4.0 0.0 5 ------- null}
h -t 1.8473 -s 4 -d 3 -p ack -e 40 -c 1 -i 22 -a 1 -x {4.0 0.0 -1 ------- null}
r -t 1.8657 -s 4 -d 3 -p ack -e 40 -c 1 -i 20 -a 1 -x {4.0 0.0 3 ------- null}
+ -t 1.8657 -s 3 -d 2 -p ack -e 40 -c 1 -i 20 -a 1 -x {4.0 0.0 3 ------- null}
- -t 1.8657 -s 3 -d 2 -p ack -e 40 -c 1 -i 20 -a 1 -x {4.0 0.0 3 ------- null}
h -t 1.8657 -s 3 -d 2 -p ack -e 40 -c 1 -i 20 -a 1 -x {4.0 0.0 -1 ------- null}
r -t 1.8721 -s 2 -d 3 -p tcp -e 1040 -c 1 -i 18 -a 1 -x {0.1 5.0 5 ------- null}
+ -t 1.8721 -s 3 -d 5 -p tcp -e 1040 -c 1 -i 18 -a 1 -x {0.1 5.0 5 ------- null}
- -t 1.8721 -s 3 -d 5 -p tcp -e 1040 -c 1 -i 18 -a 1 -x {0.1 5.0 5 ------- null}
h -t 1.8721 -s 3 -d 5 -p tcp -e 1040 -c 1 -i 18 -a 1 -x {0.1 5.0 -1 ------- null}
r -t 1.8889 -s 3 -d 4 -p tcp -e 1040 -c 1 -i 15 -a 1 -x {0.0 4.0 6 ------- null}
+ -t 1.8889 -s 4 -d 3 -p ack -e 40 -c 1 -i 23 -a 1 -x {4.0 0.0 6 ------- null}
- -t 1.8889 -s 4 -d 3 -p ack -e 40 -c 1 -i 23 -a 1 -x {4.0 0.0 6 ------- null}
h -t 1.8889 -s 4 -d 3 -p ack -e 40 -c 1 -i 23 -a 1 -x {4.0 0.0 -1 ------- null}
r -t 1.9073 -s 4 -d 3 -p ack -e 40 -c 1 -i 21 -a 1 -x {4.0 0.0 4 ------- null}
+ -t 1.9073 -s 3 -d 2 -p ack -e 40 -c 1 -i 21 -a 1 -x {4.0 0.0 4 ------- null}
- -t 1.9073 -s 3 -d 2 -p ack -e 40 -c 1 -i 21 -a 1 -x {4.0 0.0 4 ------- null}
h -t 1.9073 -s 3 -d 2 -p ack -e 40 -c 1 -i 21 -a 1 -x {4.0 0.0 -1 ------- null}
r -t 1.9137 -s 2 -d 3 -p tcp -e 1040 -c 1 -i 19 -a 1 -x {0.1 5.0 6 ------- null}
+ -t 1.9137 -s 3 -d 5 -p tcp -e 1040 -c 1 -i 19 -a 1 -x {0.1 5.0 6 ------- null}
- -t 1.9137 -s 3 -d 5 -p tcp -e 1040 -c 1 -i 19 -a 1 -x {0.1 5.0 6 ------- null}
h -t 1.9137 -s 3 -d 5 -p tcp -e 1040 -c 1 -i 19 -a 1 -x {0.1 5.0 -1 ------- null}
r -t 1.9305 -s 3 -d 5 -p tcp -e 1040 -c 1 -i 16 -a 1 -x {0.1 5.0 3 ------- null}
+ -t 1.9305 -s 5 -d 3 -p ack -e 40 -c 1 -i 24 -a 1 -x {5.0 0.1 3 ------- null}
- -t 1.9305 -s 5 -d 3 -p ack -e 40 -c 1 -i 24 -a 1 -x {5.0 0.1 3 ------- null}
h -t 1.9305 -s 5 -d 3 -p ack -e 40 -c 1 -i 24 -a 1 -x {5.0 0.1 -1 ------- null}
r -t 1.9489 -s 4 -d 3 -p ack -e 40 -c 1 -i 22 -a 1 -x {4.0 0.0 5 ------- null}
+ -t 1.9489 -s 3 -d 2 -p ack -e 40 -c 1 -i 22 -a 1 -x {4.0 0.0 5 ------- null}
- -t 1.9489 -s 3 -d 2 -p ack -e 40 -c 1 -i 22 -a 1 -x {4.0 0.0 5 ------- null}
h -t 1.9489 -s 3 -d 2 -p ack -e 40 -c 1 -i 22 -a 1 -x {4.0 0.0 -1 ------- null}
r -t 1.9673 -s 3 -d 2 -p ack -e 40 -c 1 -i 20 -a 1 -x {4.0 0.0 3 ------- null}
+ -t 1.9673 -s 2 -d 0 -p ack -e 40 -c 1 -i 20 -a 1 -x {4.0 0.0 3 ------- null}
- -t 1.9673 -s 2 -d 0 -p ack -e 40 -c 1 -i 20 -a 1 -x {4.0 0.0 3 ------- null}
h -t 1.9673 -s 2 -d 0 -p ack -e 40 -c 1 -i 20 -a 1 -x {4.0 0.0 -1 ------- null}
r -t 1.9721 -s 3 -d 5 -p tcp -e 1040 -c 1 -i 17 -a 1 -x {0.1 5.0 4 ------- null}
+ -t 1.9721 -s 5 -d 3 -p ack -e 40 -c 1 -i 25 -a 1 -x {5.0 0.1 4 ------- null}
- -t 1.9721 -s 5 -d 3 -p ack -e 40 -c 1 -i 25 -a 1 -x {5.0 0.1 4 ------- null}
h -t 1.9721 -s 5 -d 3 -p ack -e 40 -c 1 -i 25 -a 1 -x {5.0 0.1 -1 ------- null}
r -t 1.9905 -s 4 -d 3 -p ack -e 40 -c 1 -i 23 -a 1 -x {4.0 0.0 6 ------- null}
+ -t 1.9905 -s 3 -d 2 -p ack -e 40 -c 1 -i 23 -a 1 -x {4.0 0.0 6 ------- null}
- -t 1.9905 -s 3 -d 2 -p ack -e 40 -c 1 -i 23 -a 1 -x {4.0 0.0 6 ------- null}
h -t 1.9905 -s 3 -d 2 -p ack -e 40 -c 1 -i 23 -a 1 -x {4.0 0.0 -1 ------- null}
+ -t 2.0001 -s 1 -d 2 -p udp -e 512 -c 2 -i 26 -a 2 -x {1.0 4.1 0 ------- null}
- -t 2.0001 -s 1 -d 2 -p udp -e 512 -c 2 -i 26 -a 2 -x {1.0 4.1 0 ------- null}
h -t 2.0001 -s 1 -d 2 -p udp -e 512 -c 2 -i 26 -a 2 -x {1.0 4.1 -1 ------- null}
r -t 2.0089 -s 3 -d 2 -p ack -e 40 -c 1 -i 21 -a 1 -x {4.0 0.0 4 ------- null}
+ -t 2.0089 -s 2 -d 0 -p ack -e 40 -c 1 -i 21 -a 1 -x {4.0 0.0 4 ------- null}
- -t 2.0089 -s 2 -d 0 -p ack -e 40 -c 1 -i 21 -a 1 -x {4.0 0.0 4 ------- null}
h -t 2.0089 -s 2 -d 0 -p ack -e 40 -c 1 -i 21 -a 1 -x {4.0 0.0 -1 ------- null}
r -t 2.0137 -s 3 -d 5 -p tcp -e 1040 -c 1 -i 18 -a 1 -x {0.1 5.0 5 ------- null}
+ -t 2.0137 -s 5 -d 3 -p ack -e 40 -c 1 -i 27 -a 1 -x {5.0 0.1 5 ------- null}
- -t 2.0137 -s 5 -d 3 -p ack -e 40 -c 1 -i 27 -a 1 -x {5.0 0.1 5 ------- null}
h -t 2.0137 -s 5 -d 3 -p ack -e 40 -c 1 -i 27 -a 1 -x {5.0 0.1 -1 ------- null}
r -t 2.0321 -s 5 -d 3 -p ack -e 40 -c 1 -i 24 -a 1 -x {5.0 0.1 3 ------- null}
+ -t 2.0321 -s 3 -d 2 -p ack -e 40 -c 1 -i 24 -a 1 -x {5.0 0.1 3 ------- null}
- -t 2.0321 -s 3 -d 2 -p ack -e 40 -c 1 -i 24 -a 1 -x {5.0 0.1 3 ------- null}
h -t 2.0321 -s 3 -d 2 -p ack -e 40 -c 1 -i 24 -a 1 -x {5.0 0.1 -1 ------- null}
+ -t 2.04653218 -s 1 -d 2 -p udp -e 512 -c 2 -i 28 -a 2 -x {1.1 5.1 0 ------- null}
- -t 2.04653218 -s 1 -d 2 -p udp -e 512 -c 2 -i 28 -a 2 -x {1.1 5.1 0 ------- null}
h -t 2.04653218 -s 1 -d 2 -p udp -e 512 -c 2 -i 28 -a 2 -x {1.1 5.1 -1 ------- null}
r -t 2.0505 -s 3 -d 2 -p ack -e 40 -c 1 -i 22 -a 1 -x {4.0 0.0 5 ------- null}
+ -t 2.0505 -s 2 -d 0 -p ack -e 40 -c 1 -i 22 -a 1 -x {4.0 0.0 5 ------- null}
- -t 2.0505 -s 2 -d 0 -p ack -e 40 -c 1 -i 22 -a 1 -x {4.0 0.0 5 ------- null}
h -t 2.0505 -s 2 -d 0 -p ack -e 40 -c 1 -i 22 -a 1 -x {4.0 0.0 -1 ------- null}
r -t 2.0553 -s 3 -d 5 -p tcp -e 1040 -c 1 -i 19 -a 1 -x {0.1 5.0 6 ------- null}
+ -t 2.0553 -s 5 -d 3 -p ack -e 40 -c 1 -i 29 -a 1 -x {5.0 0.1 6 ------- null}
- -t 2.0553 -s 5 -d 3 -p ack -e 40 -c 1 -i 29 -a 1 -x {5.0 0.1 6 ------- null}
h -t 2.0553 -s 5 -d 3 -p ack -e 40 -c 1 -i 29 -a 1 -x {5.0 0.1 -1 ------- null}
+ -t 2.06439459 -s 1 -d 2 -p udp -e 512 -c 2 -i 30 -a 2 -x {1.0 4.1 1 ------- null}
- -t 2.06439459 -s 1 -d 2 -p udp -e 512 -c 2 -i 30 -a 2 -x {1.0 4.1 1 ------- null}
h -t 2.06439459 -s 1 -d 2 -p udp -e 512 -c 2 -i 30 -a 2 -x {1.0 4.1 -1 ------- null}
r -t 2.0689 -s 2 -d 0 -p ack -e 40 -c 1 -i 20 -a 1 -x {4.0 0.0 3 ------- null}
+ -t 2.0689 -s 0 -d 2 -p tcp -e 1040 -c 1 -i 31 -a 1 -x {0.0 4.0 7 ------- null}
- -t 2.0689 -s 0 -d 2 -p tcp -e 1040 -c 1 -i 31 -a 1 -x {0.0 4.0 7 ------- null}
h -t 2.0689 -s 0 -d 2 -p tcp -e 1040 -c 1 -i 31 -a 1 -x {0.0 4.0 -1 ------- null}
+ -t 2.0689 -s 0 -d 2 -p tcp -e 1040 -c 1 -i 32 -a 1 -x {0.0 4.0 8 ------- null}
+ -t 2.07018374 -s 1 -d 2 -p udp -e 512 -c 2 -i 33 -a 2 -x {1.0 4.1 2 ------- null}
+ -t 2.0704616331 -s 1 -d 2 -p udp -e 512 -c 2 -i 34 -a 2 -x {1.1 5.1 1 ------- null}
- -t 2.07258659 -s 1 -d 2 -p udp -e 512 -c 2 -i 33 -a 2 -x {1.0 4.1 2 ------- null}
h -t 2.07258659 -s 1 -d 2 -p udp -e 512 -c 2 -i 33 -a 2 -x {1.0 4.1 -1 ------- null}
r -t 2.0737 -s 5 -d 3 -p ack -e 40 -c 1 -i 25 -a 1 -x {5.0 0.1 4 ------- null}
+ -t 2.0737 -s 3 -d 2 -p ack -e 40 -c 1 -i 25 -a 1 -x {5.0 0.1 4 ------- null}
- -t 2.0737 -s 3 -d 2 -p ack -e 40 -c 1 -i 25 -a 1 -x {5.0 0.1 4 ------- null}
h -t 2.0737 -s 3 -d 2 -p ack -e 40 -c 1 -i 25 -a 1 -x {5.0 0.1 -1 ------- null}
+ -t 2.0749953651 -s 1 -d 2 -p udp -e 512 -c 2 -i 35 -a 2 -x {1.0 4.1 3 ------- null}
- -t 2.08077859 -s 1 -d 2 -p udp -e 512 -c 2 -i 34 -a 2 -x {1.1 5.1 1 ------- null}
h -t 2.08077859 -s 1 -d 2 -p udp -e 512 -c 2 -i 34 -a 2 -x {1.1 5.1 -1 ------- null}
+ -t 2.0889215651 -s 1 -d 2 -p udp -e 512 -c 2 -i 36 -a 2 -x {1.1 5.1 2 ------- null}
- -t 2.08897059 -s 1 -d 2 -p udp -e 512 -c 2 -i 35 -a 2 -x {1.0 4.1 3 ------- null}
h -t 2.08897059 -s 1 -d 2 -p udp -e 512 -c 2 -i 35 -a 2 -x {1.0 4.1 -1 ------- null}
+ -t 2.0909537561 -s 1 -d 2 -p udp -e 512 -c 2 -i 37 -a 2 -x {1.0 4.1 4 ------- null}
r -t 2.0921 -s 3 -d 2 -p ack -e 40 -c 1 -i 23 -a 1 -x {4.0 0.0 6 ------- null}
+ -t 2.0921 -s 2 -d 0 -p ack -e 40 -c 1 -i 23 -a 1 -x {4.0 0.0 6 ------- null}
- -t 2.0921 -s 2 -d 0 -p ack -e 40 -c 1 -i 23 -a 1 -x {4.0 0.0 6 ------- null}
h -t 2.0921 -s 2 -d 0 -p ack -e 40 -c 1 -i 23 -a 1 -x {4.0 0.0 -1 ------- null}
+ -t 2.0938127701 -s 1 -d 2 -p udp -e 512 -c 2 -i 38 -a 2 -x {1.0 4.1 5 ------- null}
- -t 2.09716259 -s 1 -d 2 -p udp -e 512 -c 2 -i 36 -a 2 -x {1.1 5.1 2 ------- null}
h -t 2.09716259 -s 1 -d 2 -p udp -e 512 -c 2 -i 36 -a 2 -x {1.1 5.1 -1 ------- null}
+ -t 2.1006481851 -s 1 -d 2 -p udp -e 512 -c 2 -i 39 -a 2 -x {1.1 5.1 3 ------- null}
- -t 2.10535459 -s 1 -d 2 -p udp -e 512 -c 2 -i 37 -a 2 -x {1.0 4.1 4 ------- null}
h -t 2.10535459 -s 1 -d 2 -p udp -e 512 -c 2 -i 37 -a 2 -x {1.0 4.1 -1 ------- null}
r -t 2.108292 -s 1 -d 2 -p udp -e 512 -c 2 -i 26 -a 2 -x {1.0 4.1 0 ------- null}
+ -t 2.108292 -s 2 -d 3 -p udp -e 512 -c 2 -i 26 -a 2 -x {1.0 4.1 0 ------- null}
- -t 2.108292 -s 2 -d 3 -p udp -e 512 -c 2 -i 26 -a 2 -x {1.0 4.1 0 ------- null}
h -t 2.108292 -s 2 -d 3 -p udp -e 512 -c 2 -i 26 -a 2 -x {1.0 4.1 -1 ------- null}
- -t 2.1105 -s 0 -d 2 -p tcp -e 1040 -c 1 -i 32 -a 1 -x {0.0 4.0 8 ------- null}
h -t 2.1105 -s 0 -d 2 -p tcp -e 1040 -c 1 -i 32 -a 1 -x {0.0 4.0 -1 ------- null}
r -t 2.1105 -s 2 -d 0 -p ack -e 40 -c 1 -i 21 -a 1 -x {4.0 0.0 4 ------- null}
+ -t 2.1105 -s 0 -d 2 -p tcp -e 1040 -c 1 -i 40 -a 1 -x {0.0 4.0 9 ------- null}
+ -t 2.1105 -s 0 -d 2 -p tcp -e 1040 -c 1 -i 41 -a 1 -x {0.0 4.0 10 ------- null}
+ -t 2.1110298451 -s 1 -d 2 -p udp -e 512 -c 2 -i 42 -a 2 -x {1.1 5.1 4 ------- null}
- -t 2.11354659 -s 1 -d 2 -p udp -e 512 -c 2 -i 38 -a 2 -x {1.0 4.1 5 ------- null}
h -t 2.11354659 -s 1 -d 2 -p udp -e 512 -c 2 -i 38 -a 2 -x {1.0 4.1 -1 ------- null}
r -t 2.1153 -s 5 -d 3 -p ack -e 40 -c 1 -i 27 -a 1 -x {5.0 0.1 5 ------- null}
+ -t 2.1153 -s 3 -d 2 -p ack -e 40 -c 1 -i 27 -a 1 -x {5.0 0.1 5 ------- null}
- -t 2.1153 -s 3 -d 2 -p ack -e 40 -c 1 -i 27 -a 1 -x {5.0 0.1 5 ------- null}
h -t 2.1153 -s 3 -d 2 -p ack -e 40 -c 1 -i 27 -a 1 -x {5.0 0.1 -1 ------- null}
- -t 2.12173859 -s 1 -d 2 -p udp -e 512 -c 2 -i 39 -a 2 -x {1.1 5.1 3 ------- null}
h -t 2.12173859 -s 1 -d 2 -p udp -e 512 -c 2 -i 39 -a 2 -x {1.1 5.1 -1 ------- null}
+ -t 2.1232282051 -s 1 -d 2 -p udp -e 512 -c 2 -i 43 -a 2 -x {1.1 5.1 5 ------- null}
- -t 2.12993059 -s 1 -d 2 -p udp -e 512 -c 2 -i 42 -a 2 -x {1.1 5.1 4 ------- null}
h -t 2.12993059 -s 1 -d 2 -p udp -e 512 -c 2 -i 42 -a 2 -x {1.1 5.1 -1 ------- null}
+ -t 2.1306341471 -s 1 -d 2 -p udp -e 512 -c 2 -i 44 -a 2 -x {1.1 5.1 6 ------- null}