V -t * -v 1.0a5 -a 0
A -t * -n 1 -p 0 -o 0x7fffffff -c 30 -a 1
A -t * -h 1 -m 1073741823 -s 0
c -t * -i 1 -n Blue
c -t * -i 2 -n Red
n -t * -a 4 -s 4 -S UP -v circle -c black -i black
n -t * -a 0 -s 0 -S UP -v circle -c black -i black
n -t * -a 5 -s 5 -S UP -v circle -c black -i black
n -t * -a 1 -s 1 -S UP -v circle -c black -i black
n -t * -a 2 -s 2 -S UP -v hexagon -c black -i black
n -t * -a 3 -s 3 -S UP -v square -c black -i black
l -t * -s 0 -d 2 -S UP -r 500000 -D 0.10000000000000001 -c black -o right-down
l -t * -s 1 -d 2 -S UP -r 500000 -D 0.10000000000000001 -c black -o right-up
l -t * -s 2 -d 3 -S UP -r 200000 -D 0.10000000000000001 -c black -o right
l -t * -s 3 -d 4 -S UP -r 200000 -D 0.10000000000000001 -c black -o right-up
l -t * -s 3 -d 5 -S UP -r 200000 -D 0.10000000000000001 -c black -o right-down
q -t * -s 2 -d 0 -a 0.5
q -t * -s 0 -d 2 -a 0.5
q -t * -s 2 -d 1 -a 0.5
q -t * -s 1 -d 2 -a 0.5
q -t * -s 2 -d 3 -a 0.5
n -t 0 -s 2 -S DLABEL -l "server" -L ""
n -t 0 -s 3 -S DLABEL -l "router" -L ""
n -t 0 -s 0 -S DLABEL -l "client" -L ""
n -t 0 -s 1 -S DLABEL -l "client" -L ""
n -t 0 -s 4 -S DLABEL -l "client" -L ""
n -t 0 -s 5 -S DLABEL -l "client" -L ""
+ -t 0.0001 -s 0 -d 2 -p tcp -e 40 -c 1 -i 0 -a 1 -x {0.0 4.0 0 ------- null}
- -t 0.0001 -s 0 -d 2 -p tcp -e 40 -c 1 -i 0 -a 1 -x {0.0 4.0 0 ------- null}
h -t 0.0001 -s 0 -d 2 -p tcp -e 40 -c 1 -i 0 -a 1 -x {0.0 4.0 -1 ------- null}
+ -t 0.01646635 -s 0 -d 2 -p tcp -e 40 -c 1 -i 1 -a 1 -x {0.1 5.0 0 ------- null}
- -t 0.01646635 -s 0 -d 2 -p tcp -e 40 -c 1 -i 1 -a 1 -x {0.1 5.0 0 ------- null}
h -t 0.01646635 -s 0 -d 2 -p tcp -e 40 -c 1 -i 1 -a 1 -x {0.1 5.0 -1 ------- null}
r -t 0.10074 -s 0 -d 2 -p tcp -e 40 -c 1 -i 0 -a 1 -x {0.0 4.0 0 ------- null}
+ -t 0.10074 -s 2 -d 3 -p tcp -e 40 -c 1 -i 0 -a 1 -x {0.0 4.0 0 ------- null}
- -t 0.10074 -s 2 -d 3 -p tcp -e 40 -c 1 -i 0 -a 1 -x {0.0 4.0 0 ------- null}
h -t 0.10074 -s 2 -d 3 -p tcp -e 40 -c 1 -i 0 -a 1 -x {0.0 4.0 -1 ------- null}
r -t 0.11710635 -s 0 -d 2 -p tcp -e 40 -c 1 -i 1 -a 1 -x {0.1 5.0 0 ------- null}
+ -t 0.11710635 -s 2 -d 3 -p tcp -e 40 -c 1 -i 1 -a 1 -x {0.1 5.0 0 ------- null}
- -t 0.11710635 -s 2 -d 3 -p tcp -e 40 -c 1 -i 1 -a 1 -x {0.1 5.0 0 ------- null}
h -t 0.11710635 -s 2 -d 3 -p tcp -e 40 -c 1 -i 1 -a 1 -x {0.1 5.0 -1 ------- null}
r -t 0.20234 -s 2 -d 3 -p tcp -e 40 -c 1 -i 0 -a 1 -x {0.0 4.0 0 ------- null}
+ -t 0.20234 -s 3 -d 4 -p tcp -e 40 -c 1 -i 0 -a 1 -x {0.0 4.0 0 ------- null}
- -t 0.20234 -s 3 -d 4 -p tcp -e 40 -c 1 -i 0 -a 1 -x {0.0 4.0 0 ------- null}
h -t 0.20234 -s 3 -d 4 -p tcp -e 40 -c 1 -i 0 -a 1 -x {0.0 4.0 -1 ------- null}
r -t 0.21870635 -s 2 -d 3 -p tcp -e 40 -c 1 -i 1 -a 1 -x {0.1 5.0 0 ------- null}
+ -t 0.21870635 -s 3 -d 5 -p tcp -e 40 -c 1 -i 1 -a 1 -x {0.1 5.0 0 ------- null}
- -t 0.21870635 -s 3 -d 5 -p tcp -e 40 -c 1 -i 1 -a 1 -x {0.1 5.0 0 ------- null}
h -t 0.21870635 -s 3 -d 5 -p tcp -e 40 -c 1 -i 1 -a 1 -x {0.1 5.0 -1 ------- null}
r -t 0.30394 -s 3 -d 4 -p tcp -e 40 -c 1 -i 0 -a 1 -x {0.0 4.0 0 ------- null}
+ -t 0.30394 -s 4 -d 3 -p ack -e 40 -c 1 -i 2 -a 1 -x {4.0 0.0 0 ------- null}
- -t 0.30394 -s 4 -d 3 -p ack -e 40 -c 1 -i 2 -a 1 -x {4.0 0.0 0 ------- null}
h -t 0.30394 -s 4 -d 3 -p ack -e 40 -c 1 -i 2 -a 1 -x {4.0 0.0 -1 ------- null}
r -t 0.32030635 -s 3 -d 5 -p tcp -e 40 -c 1 -i 1 -a 1 -x {0.1 5.0 0 ------- null}
+ -t 0.32030635 -s 5 -d 3 -p ack -e 40 -c 1 -i 3 -a 1 -x {5.0 0.1 0 ------- null}
- -t 0.32030635 -s 5 -d 3 -p ack -e 40 -c 1 -i 3 -a 1 -x {5.0 0.1 0 ------- null}
h -t 0.32030635 -s 5 -d 3 -p ack -e 40 -c 1 -i 3 -a 1 -x {5.0 0.1 -1 ------- null}
r -t 0.40554 -s 4 -d 3 -p ack -e 40 -c 1 -i 2 -a 1 -x {4.0 0.0 0 ------- null}
+ -t 0.40554 -s 3 -d 2 -p ack -e 40 -c 1 -i 2 -a 1 -x {4.0 0.0 0 ------- null}
- -t 0.40554 -s 3 -d 2 -p ack -e 40 -c 1 -i 2 -a 1 -x {4.0 0.0 0 ------- null}
h -t 0.40554 -s 3 -d 2 -p ack -e 40 -c 1 -i 2 -a 1 -x {4.0 0.0 -1 ------- null}
r -t 0.42190635 -s 5 -d 3 -p ack -e 40 -c 1 -i 3 -a 1 -x {5.0 0.1 0 ------- null}
+ -t 0.42190635 -s 3 -d 2 -p ack -e 40 -c 1 -i 3 -a 1 -x {5.0 0.1 0 ------- null}
- -t 0.42190635 -s 3 -d 2 -p ack -e 40 -c 1 -i 3 -a 1 -x {5.0 0.1 0 ------- null}
h -t 0.42190635 -s 3 -d 2 -p ack -e 40 -c 1 -i 3 -a 1 -x {5.0 0.1 -1 ------- null}
r -t 0.50714 -s 3 -d 2 -p ack -e 40 -c 1 -i 2 -a 1 -x {4.0 0.0 0 ------- null}
+ -t 0.50714 -s 2 -d 0 -p ack -e 40 -c 1 -i 2 -a 1 -x {4.0 0.0 0 ------- null}
- -t 0.50714 -s 2 -d 0 -p ack -e 40 -c 1 -i 2 -a 1 -x {4.0 0.0 0 ------- null}
h -t 0.50714 -s 2 -d 0 -p ack -e 40 -c 1 -i 2 -a 1 -x {4.0 0.0 -1 ------- null}
r -t 0.52350635 -s 3 -d 2 -p ack -e 40 -c 1 -i 3 -a 1 -x {5.0 0.1 0 ------- null}
+ -t 0.52350635 -s 2 -d 0 -p ack -e 40 -c 1 -i 3 -a 1 -x {5.0 0.1 0 ------- null}
- -t 0.52350635 -s 2 -d 0 -p ack -e 40 -c 1 -i 3 -a 1 -x {5.0 0.1 0 ------- null}
h -t 0.52350635 -s 2 -d 0 -p ack -e 40 -c 1 -i 3 -a 1 -x {5.0 0.1 -1 ------- null}
r -t 0.60778 -s 2 -d 0 -p ack -e 40 -c 1 -i 2 -a 1 -x {4.0 0.0 0 ------- null}
+ -t 0.60778 -s 0 -d 2 -p tcp -e 1040 -c 1 -i 4 -a 1 -x {0.0 4.0 1 ------- null}
- -t 0.60778 -s 0 -d 2 -p tcp -e 1040 -c 1 -i 4 -a 1 -x {0.0 4.0 1 ------- null}
h -t 0.60778 -s 0 -d 2 -p tcp -e 1040 -c 1 -i 4 -a 1 -x {0.0 4.0 -1 ------- null}
+ -t 0.60778 -s 0 -d 2 -p tcp -e 1040 -c 1 -i 5 -a 1 -x {0.0 4.0 2 ------- null}
r -t 0.62414635 -s 2 -d 0 -p ack -e 40 -c 1 -i 3 -a 1 -x {5.0 0.1 0 ------- null}
+ -t 0.62414635 -s 0 -d 2 -p tcp -e 1040 -c 1 -i 6 -a 1 -x {0.1 5.0 1 ------- null}
+ -t 0.62414635 -s 0 -d 2 -p tcp -e 1040 -c 1 -i 7 -a 1 -x {0.1 5.0 2 ------- null}
- -t 0.62442 -s 0 -d 2 -p tcp -e 1040 -c 1 -i 5 -a 1 -x {0.0 4.0 2 ------- null}
h -t 0.62442 -s 0 -d 2 -p tcp -e 1040 -c 1 -i 5 -a 1 -x {0.0 4.0 -1 ------- null}
- -t 0.64106 -s 0 -d 2 -p tcp -e 1040 -c 1 -i 6 -a 1 -x {0.1 5.0 1 ------- null}
h -t 0.64106 -s 0 -d 2 -p tcp -e 1040 -c 1 -i 6 -a 1 -x {0.1 5.0 -1 ------- null}
- -t 0.6577 -s 0 -d 2 -p tcp -e 1040 -c 1 -i 7 -a 1 -x {0.1 5.0 2 ------- null}
h -t 0.6577 -s 0 -d 2 -p tcp -e 1040 -c 1 -i 7 -a 1 -x {0.1 5.0 -1 ------- null}
r -t 0.72442 -s 0 -d 2 -p tcp -e 1040 -c 1 -i 4 -a 1 -x {0.0 4.0 1 ------- null}
+ -t 0.72442 -s 2 -d 3 -p tcp -e 1040 -c 1 -i 4 -a 1 -x {0.0 4.0 1 ------- null}
- -t 0.72442 -s 2 -d 3 -p tcp -e 1040 -c 1 -i 4 -a 1 -x {0.0 4.0 1 ------- null}
h -t 0.72442 -s 2 -d 3 -p tcp -e 1040 -c 1 -i 4 -a 1 -x {0.0 4.0 -1 ------- null}
r -t 0.74106 -s 0 -d 2 -p tcp -e 1040 -c 1 -i 5 -a 1 -x {0.0 4.0 2 ------- null}
+ -t 0.74106 -s 2 -d 3 -p tcp -e 1040 -c 1 -i 5 -a 1 -x {0.0 4.0 2 ------- null}
r -t 0.7577 -s 0 -d 2 -p tcp -e 1040 -c 1 -i 6 -a 1 -x {0.1 5.0 1 ------- null}
+ -t 0.7577 -s 2 -d 3 -p tcp -e 1040 -c 1 -i 6 -a 1 -x {0.1 5.0 1 ------- null}
- -t 0.76602 -s 2 -d 3 -p tcp -e 1040 -c 1 -i 5 -a 1 -x {0.0 4.0 2 ------- null}
h -t 0.76602 -s 2 -d 3 -p tcp -e 1040 -c 1 -i 5 -a 1 -x {0.0 4.0 -1 ------- null}
r -t 0.77434 -s 0 -d 2 -p tcp -e 1040 -c 1 -i 7 -a 1 -x {0.1 5.0 2 ------- null}
+ -t 0.77434 -s 2 -d 3 -p tcp -e 1040 -c 1 -i 7 -a 1 -x {0.1 5.0 2 ------- null}
- -t 0.80762 -s 2 -d 3 -p tcp -e 1040 -c 1 -i 6 -a 1 -x {0.1 5.0 1 ------- null}
h -t 0.80762 -s 2 -d 3 -p tcp -e 1040 -c 1 -i 6 -a 1 -x {0.1 5.0 -1 ------- null}
- -t 0.84922 -s 2 -d 3 -p tcp -e 1040 -c 1 -i 7 -a 1 -x {0.1 5.0 2 ------- null}
h -t 0.84922 -s 2 -d 3 -p tcp -e 1040 -c 1 -i 7 -a 1 -x {0.1 5.0 -1 ------- null}
r -t 0.86602 -s 2 -d 3 -p tcp -e 1040 -c 1 -i 4 -a 1 -x {0.0 4.0 1 ------- null}
+ -t 0.86602 -s 3 -d 4 -p tcp -e 1040 -c 1 -i 4 -a 1 -x {0.0 4.0 1 ------- null}
- -t 0.86602 -s 3 -d 4 -p tcp -e 1040 -c 1 -i 4 -a 1 -x {0.0 4.0 1 ------- null}
h -t 0.86602 -s 3 -d 4 -p tcp -e 1040 -c 1 -i 4 -a 1 -x {0.0 4.0 -1 ------- null}
r -t 0.90762 -s 2 -d 3 -p tcp -e 1040 -c 1 -i 5 -a 1 -x {0.0 4.0 2 ------- null}
+ -t 0.90762 -s 3 -d 4 -p tcp -e 1040 -c 1 -i 5 -a 1 -x {0.0 4.0 2 ------- null}
- -t 0.90762 -s 3 -d 4 -p tcp -e 1040 -c 1 -i 5 -a 1 -x {0.0 4.0 2 ------- null}
h -t 0.90762 -s 3 -d 4 -p tcp -e 1040 -c 1 -i 5 -a 1 -x {0.0 4.0 -1 ------- null}
r -t 0.94922 -s 2 -d 3 -p tcp -e 1040 -c 1 -i 6 -a 1 -x {0.1 5.0 1 ------- null}
+ -t 0.94922 -s 3 -d 5 -p tcp -e 1040 -c 1 -i 6 -a 1 -x {0.1 5.0 1 ------- null}
- -t 0.94922 -s 3 -d 5 -p tcp -e 1040 -c 1 -i 6 -a 1 -x {0.1 5.0 1 ------- null}
h -t 0.94922 -s 3 -d 5 -p tcp -e 1040 -c 1 -i 6 -a 1 -x {0.1 5.0 -1 ------- null}
r -t 0.99082 -s 2 -d 3 -p tcp -e 1040 -c 1 -i 7 -a 1 -x {0.1 5.0 2 ------- null}
+ -t 0.99082 -s 3 -d 5 -p tcp -e 1040 -c 1 -i 7 -a 1 -x {0.1 5.0 2 ------- null}
- -t 0.99082 -s 3 -d 5 -p tcp -e 1040 -c 1 -i 7 -a 1 -x {0.1 5.0 2 ------- null}
h -t 0.99082 -s 3 -d 5 -p tcp -e 1040 -c 1 -i 7 -a 1 -x {0.1 5.0 -1 ------- null}
r -t 1.00762 -s 3 -d 4 -p tcp -e 1040 -c 1 -i 4 -a 1 -x {0.0 4.0 1 ------- null}
+ -t 1.00762 -s 4 -d 3 -p ack -e 40 -c 1 -i 8 -a 1 -x {4.0 0.0 1 ------- null}
- -t 1.00762 -s 4 -d 3 -p ack -e 40 -c 1 -i 8 -a 1 -x {4.0 0.0 1 ------- null}
h -t 1.00762 -s 4 -d 3 -p ack -e 40 -c 1 -i 8 -a 1 -x {4.0 0.0 -1 ------- null}
r -t 1.04922 -s 3 -d 4 -p tcp -e 1040 -c 1 -i 5 -a 1 -x {0.0 4.0 2 ------- null}
+ -t 1.04922 -s 4 -d 3 -p ack -e 40 -c 1 -i 9 -a 1 -x {4.0 0.0 2 ------- null}
- -t 1.04922 -s 4 -d 3 -p ack -e 40 -c 1 -i 9 -a 1 -x {4.0 0.0 2 ------- null}
h -t 1.04922 -s 4 -d 3 -p ack -e 40 -c 1 -i 9 -a 1 -x {4.0 0.0 -1 ------- null}
r -t 1.09082 -s 3 -d 5 -p tcp -e 1040 -c 1 -i 6 -a 1 -x {0.1 5.0 1 ------- null}
+ -t 1.09082 -s 5 -d 3 -p ack -e 40 -c 1 -i 10 -a 1 -x {5.0 0.1 1 ------- null}
- -t 1.09082 -s 5 -d 3 -p ack -e 40 -c 1 -i 10 -a 1 -x {5.0 0.1 1 ------- null}
h -t 1.09082 -s 5 -d 3 -p ack -e 40 -c 1 -i 10 -a 1 -x {5.0 0.1 -1 ------- null}
r -t 1.10922 -s 4 -d 3 -p ack -e 40 -c 1 -i 8 -a 1 -x {4.0 0.0 1 ------- null}
+ -t 1.10922 -s 3 -d 2 -p ack -e 40 -c 1 -i 8 -a 1 -x {4.0 0.0 1 ------- null}
- -t 1.10922 -s 3 -d 2 -p ack -e 40 -c 1 -i 8 -a 1 -x {4.0 0.0 1 ------- null}
h -t 1.10922 -s 3 -d 2 -p ack -e 40 -c 1 -i 8 -a 1 -x {4.0 0.0 -1 ------- null}
r -t 1.13242 -s 3 -d 5 -p tcp -e 1040 -c 1 -i 7 -a 1 -x {0.1 5.0 2 ------- null}
+ -t 1.13242 -s 5 -d 3 -p ack -e 40 -c 1 -i 11 -a 1 -x {5.0 0.1 2 ------- null}
- -t 1.13242 -s 5 -d 3 -p ack -e 40 -c 1 -i 11 -a 1 -x {5.0 0.1 2 ------- null}
h -t 1.13242 -s 5 -d 3 -p ack -e 40 -c 1 -i 11 -a 1 -x {5.0 0.1 -1 ------- null}
r -t 1.15082 -s 4 -d 3 -p ack -e 40 -c 1 -i 9 -a 1 -x {4.0 0.0 2 ------- null}
+ -t 1.15082 -s 3 -d 2 -p ack -e 40 -c 1 -i 9 -a 1 -x {4.0 0.0 2 ------- null}
- -t 1.15082 -s 3 -d 2 -p ack -e 40 -c 1 -i 9 -a 1 -x {4.0 0.0 2 ------- null}
h -t 1.15082 -s 3 -d 2 -p ack -e 40 -c 1 -i 9 -a 1 -x {4.0 0.0 -1 ------- null}
r -t 1.19242 -s 5 -d 3 -p ack -e 40 -c 1 -i 10 -a 1 -x {5.0 0.1 1 ------- null}
+ -t 1.19242 -s 3 -d 2 -p ack -e 40 -c 1 -i 10 -a 1 -x {5.0 0.1 1 ------- null}
- -t 1.19242 -s 3 -d 2 -p ack -e 40 -c 1 -i 10 -a 1 -x {5.0 0.1 1 ------- null}
h -t 1.19242 -s 3 -d 2 -p ack -e 40 -c 1 -i 10 -a 1 -x {5.0 0.1 -1 ------- null}
r -t 1.21082 -s 3 -d 2 -p ack -e 40 -c 1 -i 8 -a 1 -x {4.0 0.0 1 ------- null}
+ -t 1.21082 -s 2 -d 0 -p ack -e 40 -c 1 -i 8 -a 1 -x {4.0 0.0 1 ------- null}
- -t 1.21082 -s 2 -d 0 -p ack -e 40 -c 1 -i 8 -a 1 -x {4.0 0.0 1 ------- null}
h -t 1.21082 -s 2 -d 0 -p ack -e 40 -c 1 -i 8 -a 1 -x {4.0 0.0 -1 ------- null}
r -t 1.23402 -s 5 -d 3 -p ack -e 40 -c 1 -i 11 -a 1 -x {5.0 0.1 2 ------- null}
+ -t 1.23402 -s 3 -d 2 -p ack -e 40 -c 1 -i 11 -a 1 -x {5.0 0.1 2 ------- null}
- -t 1.23402 -s 3 -d 2 -p ack -e 40 -c 1 -i 11 -a 1 -x {5.0 0.1 2 ------- null}
h -t 1.23402 -s 3 -d 2 -p ack -e 40 -c 1 -i 11 -a 1 -x {5.0 0.1 -1 ------- null}
r -t 1.25242 -s 3 -d 2 -p ack -e 40 -c 1 -i 9 -a 1 -x {4.0 0.0 2 ------- null}
+ -t 1.25242 -s 2 -d 0 -p ack -e 40 -c 1 -i 9 -a 1 -x {4.0 0.0 2 ------- null}
- -t 1.25242 -s 2 -d 0 -p ack -e 40 -c 1 -i 9 -a 1 -x {4.0 0.0 2 ------- null}
h -t 1.25242 -s 2 -d 0 -p ack -e 40 -c 1 -i 9 -a 1 -x {4.0 0.0 -1 ------- null}
r -t 1.29402 -s 3 -d 2 -p ack -e 40 -c 1 -i 10 -a 1 -x {5.0 0.1 1 ------- null}
+ -t 1.29402 -s 2 -d 0 -p ack -e 40 -c 1 -i 10 -a 1 -x {5.0 0.1 1 ------- null}
- -t 1.29402 -s 2 -d 0 -p ack -e 40 -c 1 -i 10 -a 1 -x {5.0 0.1 1 ------- null}
h -t 1.29402 -s 2 -d 0 -p ack -e 40 -c 1 -i 10 -a 1 -x {5.0 0.1 -1 ------- null}
r -t 1.31146 -s 2 -d 0 -p ack -e 40 -c 1 -i 8 -a 1 -x {4.0 0.0 1 ------- null}
+ -t 1.31146 -s 0 -d 2 -p tcp -e 1040 -c 1 -i 12 -a 1 -x {0.0 4.0 3 ------- null}
- -t 1.31146 -s 0 -d 2 -p tcp -e 1040 -c 1 -i 12 -a 1 -x {0.0 4.0 3 ------- null}
h -t 1.31146 -s 0 -d 2 -p tcp -e 1040 -c 1 -i 12 -a 1 -x {0.0 4.0 -1 ------- null}
+ -t 1.31146 -s 0 -d 2 -p tcp -e 1040 -c 1 -i 13 -a 1 -x {0.0 4.0 4 ------- null}
- -t 1.3281 -s 0 -d 2 -p tcp -e 1040 -c 1 -i 13 -a 1 -x {0.0 4.0 4 ------- null}
h -t 1.3281 -s 0 -d 2 -p tcp -e 1040 -c 1 -i 13 -a 1 -x {0.0 4.0 -1 ------- null}
r -t 1.33562 -s 3 -d 2 -p ack -e 40 -c 1 -i 11 -a 1 -x {5.0 0.1 2 ------- null}
+ -t 1.33562 -s 2 -d 0 -p ack -e 40 -c 1 -i 11 -a 1 -x {5.0 0.1 2 ------- null}
- -t 1.33562 -s 2 -d 0 -p ack -e 40 -c 1 -i 11 -a 1 -x {5.0 0.1 2 ------- null}
h -t 1.33562 -s 2 -d 0 -p ack -e 40 -c 1 -i 11 -a 1 -x {5.0 0.1 -1 ------- null}
r -t 1.35306 -s 2 -d 0 -p ack -e 40 -c 1 -i 9 -a 1 -x {4.0 0.0 2 ------- null}
+ -t 1.35306 -s 0 -d 2 -p tcp -e 1040 -c 1 -i 14 -a 1 -x {0.0 4.0 5 ------- null}
- -t 1.35306 -s 0 -d 2 -p tcp -e 1040 -c 1 -i 14 -a 1 -x {0.0 4.0 5 ------- null}
h -t 1.35306 -s 0 -d 2 -p tcp -e 1040 -c 1 -i 14 -a 1 -x {0.0 4.0 -1 ------- null}
+ -t 1.35306 -s 0 -d 2 -p tcp -e 1040 -c 1 -i 15 -a 1 -x {0.0 4.0 6 ------- null}
- -t 1.3697 -s 0 -d 2 -p tcp -e 1040 -c 1 -i 15 -a 1 -x {0.0 4.0 6 ------- null}
h -t 1.3697 -s 0 -d 2 -p tcp -e 1040 -c 1 -i 15 -a 1 -x {0.0 4.0 -1 ------- null}
r -t 1.39466 -s 2 -d 0 -p ack -e 40 -c 1 -i 10 -a 1 -x {5.0 0.1 1 ------- null}
+ -t 1.39466 -s 0 -d 2 -p tcp -e 1040 -c 1 -i 16 -a 1 -x {0.1 5.0 3 ------- null}
- -t 1.39466 -s 0 -d 2 -p tcp -e 1040 -c 1 -i 16 -a 1 -x {0.1 5.0 3 ------- null}
h -t 1.39466 -s 0 -d 2 -p tcp -e 1040 -c 1 -i 16 -a 1 -x {0.1 5.0 -1 ------- null}
+ -t 1.39466 -s 0 -d 2 -p tcp -e 1040 -c 1 -i 17 -a 1 -x {0.1 5.0 4 ------- null}
- -t 1.4113 -s 0 -d 2 -p tcp -e 1040 -c 1 -i 17 -a 1 -x {0.1 5.0 4 ------- null}
h -t 1.4113 -s 0 -d 2 -p tcp -e 1040 -c 1 -i 17 -a 1 -x {0.1 5.0 -1 ------- null}
r -t 1.4281 -s 0 -d 2 -p tcp -e 1040 -c 1 -i 12 -a 1 -x {0.0 4.0 3 ------- null}
+ -t 1.4281 -s 2 -d 3 -p tcp -e 1040 -c 1 -i 12 -a 1 -x {0.0 4.0 3 ------- null}
- -t 1.4281 -s 2 -d 3 -p tcp -e 1040 -c 1 -i 12 -a 1 -x {0.0 4.0 3 ------- null}
h -t 1.4281 -s 2 -d 3 -p tcp -e 1040 -c 1 -i 12 -a 1 -x {0.0 4.0 -1 ------- null}
r -t 1.43626 -s 2 -d 0 -p ack -e 40 -c 1 -i 11 -a 1 -x {5.0 0.1 2 ------- null}
+ -t 1.43626 -s 0 -d 2 -p tcp -e 1040 -c 1 -i 18 -a 1 -x {0.1 5.0 5 ------- null}
- -t 1.43626 -s 0 -d 2 -p tcp -e 1040 -c 1 -i 18 -a 1 -x {0.1 5.0 5 ------- null}
h -t 1.43626 -s 0 -d 2 -p tcp -e 1040 -c 1 -i 18 -a 1 -x {0.1 5.0 -1 ------- null}
+ -t 1.43626 -s 0 -d 2 -p tcp -e 1040 -c 1 -i 19 -a 1 -x {0.1 5.0 6 ------- null}
r -t 1.44474 -s 0 -d 2 -p tcp -e 1040 -c 1 -i 13 -a 1 -x {0.0 4.0 4 ------- null}
+ -t 1.44474 -s 2 -d 3 -p tcp -e 1040 -c 1 -i 13 -a 1 -x {0.0 4.0 4 ------- null}
- -t 1.4529 -s 0 -d 2 -p tcp -e 1040 -c 1 -i 19 -a 1 -x {0.1 5.0 6 ------- null}
h -t 1.4529 -s 0 -d 2 -p tcp -e 1040 -c 1 -i 19 -a 1 -x {0.1 5.0 -1 ------- null}
r -t 1.4697 -s 0 -d 2 -p tcp -e 1040 -c 1 -i 14 -a 1 -x {0.0 4.0 5 ------- null}
+ -t 1.4697 -s 2 -d 3 -p tcp -e 1040 -c 1 -i 14 -a 1 -x {0.0 4.0 5 ------- null}
- -t 1.4697 -s 2 -d 3 -p tcp -e 1040 -c 1 -i 13 -a 1 -x {0.0 4.0 4 ------- null}
h -t 1.4697 -s 2 -d 3 -p tcp -e 1040 -c 1 -i 13 -a 1 -x {0.0 4.0 -1 ------- null}
r -t 1.48634 -s 0 -d 2 -p tcp -e 1040 -c 1 -i 15 -a 1 -x {0.0 4.0 6 ------- null}
+ -t 1.48634 -s 2 -d 3 -p tcp -e 1040 -c 1 -i 15 -a 1 -x {0.0 4.0 6 ------- null}
r -t 1.5113 -s 0 -d 2 -p tcp -e 1040 -c 1 -i 16 -a 1 -x {0.1 5.0 3 ------- null}
+ -t 1.5113 -s 2 -d 3 -p tcp -e 1040 -c 1 -i 16 -a 1 -x {0.1 5.0 3 ------- null}
- -t 1.5113 -s 2 -d 3 -p tcp -e 1040 -c 1 -i 14 -a 1 -x {0.0 4.0 5 ------- null}
h -t 1.5113 -s 2 -d 3 -p tcp -e 1040 -c 1 -i 14 -a 1 -x {0.0 4.0 -1 ------- null}
r -t 1.52794 -s 0 -d 2 -p tcp -e 1040 -c 1 -i 17 -a 1 -x {0.1 5.0 4 ------- null}
+ -t 1.52794 -s 2 -d 3 -p tcp -e 1040 -c 1 -i 17 -a 1 -x {0.1 5.0 4 ------- null}
r -t 1.5529 -s 0 -d 2 -p tcp -e 1040 -c 1 -i 18 -a 1 -x {0.1 5.0 5 ------- null}
+ -t 1.5529 -s 2 -d 3 -p tcp -e 1040 -c 1 -i 18 -a 1 -x {0.1 5.0 5 ------- null}
- -t 1.5529 -s 2 -d 3 -p tcp -e 1040 -c 1 -i 15 -a 1 -x {0.0 4.0 6 ------- null}
h -t 1.5529 -s 2 -d 3 -p tcp -e 1040 -c 1 -i 15 -a 1 -x {0.0 4.0 -1 ------- null}
r -t 1.56954 -s 0 -d 2 -p tcp -e 1040 -c 1 -i 19 -a 1 -x {0.1 5.0 6 ------- null}
+ -t 1.56954 -s 2 -d 3 -p tcp -e 1040 -c 1 -i 19 -a 1 -x {0.1 5.0 6 ------- null}
r -t 1.5697 -s 2 -d 3 -p tcp -e 1040 -c 1 -i 12 -a 1 -x {0.0 4.0 3 ------- null}
+ -t 1.5697 -s 3 -d 4 -p tcp -e 1040 -c 1 -i 12 -a 1 -x {0.0 4.0 3 ------- null}
- -t 1.5697 -s 3 -d 4 -p tcp -e 1040 -c 1 -i 12 -a 1 -x {0.0 4.0 3 ------- null}
h -t 1.5697 -s 3 -d 4 -p tcp -e 1040 -c 1 -i 12 -a 1 -x {0.0 4.0 -1 ------- null}
- -t 1.5945 -s 2 -d 3 -p tcp -e 1040 -c 1 -i 16 -a 1 -x {0.1 5.0 3 ------- null}
h -t 1.5945 -s 2 -d 3 -p tcp -e 1040 -c 1 -i 16 -a 1 -x {0.1 5.0 -1 ------- null}
r -t 1.6113 -s 2 -d 3 -p tcp -e 1040 -c 1 -i 13 -a 1 -x {0.0 4.0 4 ------- null}
+ -t 1.6113 -s 3 -d 4 -p tcp -e 1040 -c 1 -i 13 -a 1 -x {0.0 4.0 4 ------- null}
- -t 1.6113 -s 3 -d 4 -p tcp -e 1040 -c 1 -i 13 -a 1 -x {0.0 4.0 4 ------- null}
h -t 1.6113 -s 3 -d 4 -p tcp -e 1040 -c 1 -i 13 -a 1 -x {0.0 4.0 -1 ------- null}
- -t 1.6361 -s 2 -d 3 -p tcp -e 1040 -c 1 -i 17 -a 1 -x {0.1 5.0 4 ------- null}
h -t 1.6361 -s 2 -d 3 -p tcp -e 1040 -c 1 -i 17 -a 1 -x {0.1 5.0 -1 ------- null}
r -t 1.6529 -s 2 -d 3 -p tcp -e 1040 -c 1 -i 14 -a 1 -x {0.0 4.0 5 ------- null}
+ -t 1.6529 -s 3 -d 4 -p tcp -e 1040 -c 1 -i 14 -a 1 -x {0.0 4.0 5 ------- null}
- -t 1.6529 -s 3 -d 4 -p tcp -e 1040 -c 1 -i 14 -a 1 -x {0.0 4.0 5 ------- null}
h -t 1.6529 -s 3 -d 4 -p tcp -e 1040 -c 1 -i 14 -a 1 -x {0.0 4.0 -1 ------- null}
- -t 1.6777 -s 2 -d 3 -p tcp -e 1040 -c 1 -i 18 -a 1 -x {0.1 5.0 5 ------- null}
h -t 1.6777 -s 2 -d 3 -p tcp -e 1040 -c 1 -i 18 -a 1 -x {0.1 5.0 -1 ------- null}
r -t 1.6945 -s 2 -d 3 -p tcp -e 1040 -c 1 -i 15 -a 1 -x {0.0 4.0 6 ------- null}
+ -t 1.6945 -s 3 -d 4 -p tcp -e 1040 -c 1 -i 15 -a 1 -x {0.0 4.0 6 ------- null}
- -t 1.6945 -s 3 -d 4 -p tcp -e 1040 -c 1 -i 15 -a 1 -x {0.0 4.0 6 ------- null}
h -t 1.6945 -s 3 -d 4 -p tcp -e 1040 -c 1 -i 15 -a 1 -x {0.0 4.0 -1 ------- null}
r -t 1.7113 -s 3 -d 4 -p tcp -e 1040 -c 1 -i 12 -a 1 -x {0.0 4.0 3 ------- null}
+ -t 1.7113 -s 4 -d 3 -p ack -e 40 -c 1 -i 20 -a 1 -x {4.0 0.0 3 ------- null}
- -t 1.7113 -s 4 -d 3 -p ack -e 40 -c 1 -i 20 -a 1 -x {4.0 0.0 3 ------- null}
h -t 1.7113 -s 4 -d 3 -p ack -e 40 -c 1 -i 20 -a 1 -x {4.0 0.0 -1 ------- null}
- -t 1.7193 -s 2 -d 3 -p tcp -e 1040 -c 1 -i 19 -a 1 -x {0.1 5.0 6 ------- null}
h -t 1.7193 -s 2 -d 3 -p tcp -e 1040 -c 1 -i 19 -a 1 -x {0.1 5.0 -1 ------- null}
r -t 1.7361 -s 2 -d 3 -p tcp -e 1040 -c 1 -i 16 -a 1 -x {0.1 5.0 3 ------- null}
+ -t 1.7361 -s 3 -d 5 -p tcp -e 1040 -c 1 -i 16 -a 1 -x {0.1 5.0 3 ------- null}
- -t 1.7361 -s 3 -d 5 -p tcp -e 1040 -c 1 -i 16 -a 1 -x {0.1 5.0 3 ------- null}
h -t 1.7361 -s 3 -d 5 -p tcp -e 1040 -c 1 -i 16 -a 1 -x {0.1 5.0 -1 ------- null}
r -t 1.7529 -s 3 -d 4 -p tcp -e 1040 -c 1 -i 13 -a 1 -x {0.0 4.0 4 ------- null}
+ -t 1.7529 -s 4 -d 3 -p ack -e 40 -c 1 -i 21 -a 1 -x {4.0 0.0 4 ------- null}
- -t 1.7529 -s 4 -d 3 -p ack -e 40 -c 1 -i 21 -a 1 -x {4.0 0.0 4 ------- null}
h -t 1.7529 -s 4 -d 3 -p ack -e 40 -c 1 -i 21 -a 1 -x {4.0 0.0 -1 ------- null}
r -t 1.7777 -s 2 -d 3 -p tcp -e 1040 -c 1 -i 17 -a 1 -x {0.1 5.0 4 ------- null}
+ -t 1.7777 -s 3 -d 5 -p tcp -e 1040 -c 1 -i 17 -a 1 -x {0.1 5.0 4 ------- null}
- -t 1.7777 -s 3 -d 5 -p tcp -e 1040 -c 1 -i 17 -a 1 -x {0.1 5.0 4 ------- null}
h -t 1.7777 -s 3 -d 5 -p tcp -e 1040 -c 1 -i 17 -a 1 -x {0.1 5.0 -1 ------- null}
r -t 1.7945 -s 3 -d 4 -p tcp -e 1040 -c 1 -i 14 -a 1 -x {0.0 4.0 5 ------- null}
+ -t 1.7945 -s 4 -d 3 -p ack -e 40 -c 1 -i 22 -a 1 -x {4.0 0.0 5 ------- null}
- -t 1.7945 -s 4 -d 3 -p ack -e 40 -c 1 -i 22 -a 1 -x {4.0 0.0 5 ------- null}
h -t 1.7945 -s 4 -d 3 -p ack -e 40 -c 1 -i 22 -a 1 -x {4.0 0.0 -1 ------- null}
r -t 1.8129 -s 4 -d 3 -p ack -e 40 -c 1 -i 20 -a 1 -x {4.0 0.0 3 ------- null}
+ -t 1.8129 -s 3 -d 2 -p ack -e 40 -c 1 -i 20 -a 1 -x {4.0 0.0 3 ------- null}
- -t 1.8129 -s 3 -d 2 -p ack -e 40 -c 1 -i 20 -a 1 -x {4.0 0.0 3 ------- null}
h -t 1.8129 -s 3 -d 2 -p ack -e 40 -c 1 -i 20 -a 1 -x {4.0 0.0 -1 ------- null}
r -t 1.8193 -s 2 -d 3 -p tcp -e 1040 -c 1 -i 18 -a 1 -x {0.1 5.0 5 ------- null}
+ -t 1.8193 -s 3 -d 5 -p tcp -e 1040 -c 1 -i 18 -a 1 -x {0.1 5.0 5 ------- null}
- -t 1.8193 -s 3 -d 5 -p tcp -e 1040 -c 1 -i 18 -a 1 -x {0.1 5.0 5 ------- null}
h -t 1.8193 -s 3 -d 5 -p tcp -e 1040 -c 1 -i 18 -a 1 -x {0.1 5.0 -1 ------- null}
r -t 1.8361 -s 3 -d 4 -p tcp -e 1040 -c 1 -i 15 -a 1 -x {0.0 4.0 6 ------- null}
+ -t 1.8361 -s 4 -d 3 -p ack -e 40 -c 1 -i 23 -a 1 -x {4.0 0.0 6 ------- null}
- -t 1.8361 -s 4 -d 3 -p ack -e 40 -c 1 -i 23 -a 1 -x {4.0 0.0 6 ------- null}
h -t 1.8361 -s 4 -d 3 -p ack -e 40 -c 1 -i 23 -a 1 -x {4.0 0.0 -1 ------- null}
r -t 1.8545 -s 4 -d 3 -p ack -e 40 -c 1 -i 21 -a 1 -x {4.0 0.0 4 ------- null}
+ -t 1.8545 -s 3 -d 2 -p ack -e 40 -c 1 -i 21 -a 1 -x {4.0 0.0 4 ------- null}
- -t 1.8545 -s 3 -d 2 -p ack -e 40 -c 1 -i 21 -a 1 -x {4.0 0.0 4 ------- null}
h -t 1.8545 -s 3 -d 2 -p ack -e 40 -c 1 -i 21 -a 1 -x {4.0 0.0 -1 ------- null}
r -t 1.8609 -s 2 -d 3 -p tcp -e 1040 -c 1 -i 19 -a 1 -x {0.1 5.0 6 ------- null}
+ -t 1.8609 -s 3 -d 5 -p tcp -e 1040 -c 1 -i 19 -a 1 -x {0.1 5.0 6 ------- null}
- -t 1.8609 -s 3 -d 5 -p tcp -e 1040 -c 1 -i 19 -a 1 -x {0.1 5.0 6 ------- null}
h -t 1.8609 -s 3 -d 5 -p tcp -e 1040 -c 1 -i 19 -a 1 -x {0.1 5.0 -1 ------- null}
r -t 1.8777 -s 3 -d 5 -p tcp -e 1040 -c 1 -i 16 -a 1 -x {0.1 5.0 3 ------- null}
+ -t 1.8777 -s 5 -d 3 -p ack -e 40 -c 1 -i 24 -a 1 -x {5.0 0.1 3 ------- null}
- -t 1.8777 -s 5 -d 3 -p ack -e 40 -c 1 -i 24 -a 1 -x {5.0 0.1 3 ------- null}
h -t 1.8777 -s 5 -d 3 -p ack -e 40 -c 1 -i 24 -a 1 -x {5.0 0.1 -1 ------- null}
r -t 1.8961 -s 4 -d 3 -p ack -e 40 -c 1 -i 22 -a 1 -x {4.0 0.0 5 ------- null}
+ -t 1.8961 -s 3 -d 2 -p ack -e 40 -c 1 -i 22 -a 1 -x {4.0 0.0 5 ------- null}
- -t 1.8961 -s 3 -d 2 -p ack -e 40 -c 1 -i 22 -a 1 -x {4.0 0.0 5 ------- null}
h -t 1.8961 -s 3 -d 2 -p ack -e 40 -c 1 -i 22 -a 1 -x {4.0 0.0 -1 ------- null}
r -t 1.9145 -s 3 -d 2 -p ack -e 40 -c 1 -i 20 -a 1 -x {4.0 0.0 3 ------- null}
+ -t 1.9145 -s 2 -d 0 -p ack -e 40 -c 1 -i 20 -a 1 -x {4.0 0.0 3 ------- null}
- -t 1.9145 -s 2 -d 0 -p ack -e 40 -c 1 -i 20 -a 1 -x {4.0 0.0 3 ------- null}
h -t 1.9145 -s 2 -d 0 -p ack -e 40 -c 1 -i 20 -a 1 -x {4.0 0.0 -1 ------- null}
r -t 1.9193 -s 3 -d 5 -p tcp -e 1040 -c 1 -i 17 -a 1 -x {0.1 5.0 4 ------- null}
+ -t 1.9193 -s 5 -d 3 -p ack -e 40 -c 1 -i 25 -a 1 -x {5.0 0.1 4 ------- null}
- -t 1.9193 -s 5 -d 3 -p ack -e 40 -c 1 -i 25 -a 1 -x {5.0 0.1 4 ------- null}
h -t 1.9193 -s 5 -d 3 -p ack -e 40 -c 1 -i 25 -a 1 -x {5.0 0.1 -1 ------- null}
r -t 1.9377 -s 4 -d 3 -p ack -e 40 -c 1 -i 23 -a 1 -x {4.0 0.0 6 ------- null}
+ -t 1.9377 -s 3 -d 2 -p ack -e 40 -c 1 -i 23 -a 1 -x {4.0 0.0 6 ------- null}
- -t 1.9377 -s 3 -d 2 -p ack -e 40 -c 1 -i 23 -a 1 -x {4.0 0.0 6 ------- null}
h -t 1.9377 -s 3 -d 2 -p ack -e 40 -c 1 -i 23 -a 1 -x {4.0 0.0 -1 ------- null}
r -t 1.9561 -s 3 -d 2 -p ack -e 40 -c 1 -i 21 -a 1 -x {4.0 0.0 4 ------- null}
+ -t 1.9561 -s 2 -d 0 -p ack -e 40 -c 1 -i 21 -a 1 -x {4.0 0.0 4 ------- null}
- -t 1.9561 -s 2 -d 0 -p ack -e 40 -c 1 -i 21 -a 1 -x {4.0 0.0 4 ------- null}
h -t 1.9561 -s 2 -d 0 -p ack -e 40 -c 1 -i 21 -a 1 -x {4.0 0.0 -1 ------- null}
r -t 1.9609 -s 3 -d 5 -p tcp -e 1040 -c 1 -i 18 -a 1 -x {0.1 5.0 5 ------- null}
+ -t 1.9609 -s 5 -d 3 -p ack -e 40 -c 1 -i 26 -a 1 -x {5.0 0.1 5 ------- null}
- -t 1.9609 -s 5 -d 3 -p ack -e 40 -c 1 -i 26 -a 1 -x {5.0 0.1 5 ------- null}
h -t 1.9609 -s 5 -d 3 -p ack -e 40 -c 1 -i 26 -a 1 -x {5.0 0.1 -1 ------- null}
r -t 1.9793 -s 5 -d 3 -p ack -e 40 -c 1 -i 24 -a 1 -x {5.0 0.1 3 ------- null}
+ -t 1.9793 -s 3 -d 2 -p ack -e 40 -c 1 -i 24 -a 1 -x {5.0 0.1 3 ------- null}
- -t 1.9793 -s 3 -d 2 -p ack -e 40 -c 1 -i 24 -a 1 -x {5.0 0.1 3 ------- null}
h -t 1.9793 -s 3 -d 2 -p ack -e 40 -c 1 -i 24 -a 1 -x {5.0 0.1 -1 ------- null}
r -t 1.9977 -s 3 -d 2 -p ack -e 40 -c 1 -i 22 -a 1 -x {4.0 0.0 5 ------- null}
+ -t 1.9977 -s 2 -d 0 -p ack -e 40 -c 1 -i 22 -a 1 -x {4.0 0.0 5 ------- null}
- -t 1.9977 -s 2 -d 0 -p ack -e 40 -c 1 -i 22 -a 1 -x {4.0 0.0 5 ------- null}
h -t 1.9977 -s 2 -d 0 -p ack -e 40 -c 1 -i 22 -a 1 -x {4.0 0.0 -1 ------- null}
+ -t 2.0001 -s 1 -d 2 -p udp -e 512 -c 2 -i 27 -a 2 -x {1.0 4.1 0 ------- null}
- -t 2.0001 -s 1 -d 2 -p udp -e 512 -c 2 -i 27 -a 2 -x {1.0 4.1 0 ------- null}
h -t 2.0001 -s 1 -d 2 -p udp -e 512 -c 2 -i 27 -a 2 -x {1.0 4.1 -1 ------- null}
r -t 2.0025 -s 3 -d 5 -p tcp -e 1040 -c 1 -i 19 -a 1 -x {0.1 5.0 6 ------- null}
+ -t 2.0025 -s 5 -d 3 -p ack -e 40 -c 1 -i 28 -a 1 -x {5.0 0.1 6 ------- null}
- -t 2.0025 -s 5 -d 3 -p ack -e 40 -c 1 -i 28 -a 1 -x {5.0 0.1 6 ------- null}
h -t 2.0025 -s 5 -d 3 -p ack -e 40 -c 1 -i 28 -a 1 -x {5.0 0.1 -1 ------- null}
r -t 2.01514 -s 2 -d 0 -p ack -e 40 -c 1 -i 20 -a 1 -x {4.0 0.0 3 ------- null}
+ -t 2.01514 -s 0 -d 2 -p tcp -e 1040 -c 1 -i 29 -a 1 -x {0.0 4.0 7 ------- null}
- -t 2.01514 -s 0 -d 2 -p tcp -e 1040 -c 1 -i 29 -a 1 -x {0.0 4.0 7 ------- null}
h -t 2.01514 -s 0 -d 2 -p tcp -e 1040 -c 1 -i 29 -a 1 -x {0.0 4.0 -1 ------- null}
+ -t 2.01514 -s 0 -d 2 -p tcp -e 1040 -c 1 -i 30 -a 1 -x {0.0 4.0 8 ------- null}
r -t 2.0209 -s 5 -d 3 -p ack -e 40 -c 1 -i 25 -a 1 -x {5.0 0.1 4 ------- null}
+ -t 2.0209 -s 3 -d 2 -p ack -e 40 -c 1 -i 25 -a 1 -x {5.0 0.1 4 ------- null}
- -t 2.0209 -s 3 -d 2 -p ack -e 40 -c 1 -i 25 -a 1 -x {5.0 0.1 4 ------- null}
h -t 2.0209 -s 3 -d 2 -p ack -e 40 -c 1 -i 25 -a 1 -x {5.0 0.1 -1 ------- null}
- -t 2.03178 -s 0 -d 2 -p tcp -e 1040 -c 1 -i 30 -a 1 -x {0.0 4.0 8 ------- null}
h -t 2.03178 -s 0 -d 2 -p tcp -e 1040 -c 1 -i 30 -a 1 -x {0.0 4.0 -1 ------- null}
r -t 2.0393 -s 3 -d 2 -p ack -e 40 -c 1 -i 23 -a 1 -x {4.0 0.0 6 ------- null}
+ -t 2.0393 -s 2 -d 0 -p ack -e 40 -c 1 -i 23 -a 1 -x {4.0 0.0 6 ------- null}
- -t 2.0393 -s 2 -d 0 -p ack -e 40 -c 1 -i 23 -a 1 -x {4.0 0.0 6 ------- null}
h -t 2.0393 -s 2 -d 0 -p ack -e 40 -c 1 -i 23 -a 1 -x {4.0 0.0 -1 ------- null}
+ -t 2.04653218 -s 1 -d 2 -p udp -e 512 -c 2 -i 31 -a 2 -x {1.1 5.1 0 ------- null}
- -t 2.04653218 -s 1 -d 2 -p udp -e 512 -c 2 -i 31 -a 2 -x {1.1 5.1 0 ------- null}
h -t 2.04653218 -s 1 -d 2 -p udp -e 512 -c 2 -i 31 -a 2 -x {1.1 5.1 -1 ------- null}
r -t 2.05674 -s 2 -d 0 -p ack -e 40 -c 1 -i 21 -a 1 -x {4.0 0.0 4 ------- null}
+ -t 2.05674 -s 0 -d 2 -p tcp -e 1040 -c 1 -i 32 -a 1 -x {0.0 4.0 9 ------- null}
- -t 2.05674 -s 0 -d 2 -p tcp -e 1040 -c 1 -i 32 -a 1 -x {0.0 4.0 9 ------- null}
h -t 2.05674 -s 0 -d 2 -p tcp -e 1040 -c 1 -i 32 -a 1 -x {0.0 4.0 -1 ------- null}
+ -t 2.05674 -s 0 -d 2 -p tcp -e 1040 -c 1 -i 33 -a 1 -x {0.0 4.0 10 ------- null}
r -t 2.0625 -s 5 -d 3 -p ack -e 40 -c 1 -i 26 -a 1 -x {5.0 0.1 5 ------- null}
+ -t 2.0625 -s 3 -d 2 -p ack -e 40 -c 1 -i 26 -a 1 -x {5.0 0.1 5 ------- null}
- -t 2.0625 -s 3 -d 2 -p ack -e 40 -c 1 -i 26 -a 1 -x {5.0 0.1 5 ------- null}
h -t 2.0625 -s 3 -d 2 -p ack -e 40 -c 1 -i 26 -a 1 -x {5.0 0.1 -1 ------- null}
+ -t 2.06439459 -s 1 -d 2 -p udp -e 512 -c 2 -i 34 -a 2 -x {1.0 4.1 1 ------- null}
- -t 2.06439459 -s 1 -d 2 -p udp -e 512 -c 2 -i 34 -a 2 -x {1.0 4.1 1 ------- null}
h -t 2.06439459 -s 1 -d 2 -p udp -e 512 -c 2 -i 34 -a 2 -x {1.0 4.1 -1 ------- null}
+ -t 2.07018374 -s 1 -d 2 -p udp -e 512 -c 2 -i 35 -a 2 -x {1.0 4.1 2 ------- null}
+ -t 2.0704616331 -s 1 -d 2 -p udp -e 512 -c 2 -i 36 -a 2 -x {1.1 5.1 1 ------- null}
- -t 2.07258659 -s 1 -d 2 -p udp -e 512 -c 2 -i 35 -a 2 -x {1.0 4.1 2 ------- null}
h -t 2.07258659 -s 1 -d 2 -p udp -e 512 -c 2 -i 35 -a 2 -x {1.0 4.1 -1 ------- null}
- -t 2.07338 -s 0 -d 2 -p tcp -e 1040 -c 1 -i 33 -a 1 -x {0.0 4.0 10 ------- null}
h -t 2.07338 -s 0 -d 2 -p tcp -e 1040 -c 1 -i 33 -a 1 -x {0.0 4.0 -1 ------- null}
+ -t 2.0749953651 -s 1 -d 2 -p udp -e 512 -c 2 -i 37 -a 2 -x {1.0 4.1 3 ------- null}
- -t 2.08077859 -s 1 -d 2 -p udp -e 512 -c 2 -i 36 -a 2 -x {1.1 5.1 1 ------- null}
h -t 2.08077859 -s 1 -d 2 -p udp -e 512 -c 2 -i 36 -a 2 -x {1.1 5.1 -1 ------- null}
r -t 2.0809 -s 3 -d 2 -p ack -e 40 -c 1 -i 24 -a 1 -x {5.0 0.1 3 ------- null}
+ -t 2.0809 -s 2 -d 0 -p ack -e 40 -c 1 -i 24 -a 1 -x {5.0 0.1 3 ------- null}
- -t 2.0809 -s 2 -d 0 -p ack -e 40 -c 1 -i 24 -a 1 -x {5.0 0.1 3 ------- null}
h -t 2.0809 -s 2 -d 0 -p ack -e 40 -c 1 -i 24 -a 1 -x {5.0 0.1 -1 ------- null}
+ -t 2.0889215651 -s 1 -d 2 -p udp -e 512 -c 2 -i 38 -a 2 -x {1.1 5.1 2 ------- null}
- -t 2.08897059 -s 1 -d 2 -p udp -e 512 -c 2 -i 37 -a 2 -x {1.0 4.1 3 ------- null}
h -t 2.08897059 -s 1 -d 2 -p udp -e 512 -c 2 -i 37 -a 2 -x {1.0 4.1 -1 ------- null}
+ -t 2.0909537561 -s 1 -d 2 -p udp -e 512 -c 2 -i 39 -a 2 -x {1.0 4.1 4 ------- null}
+ -t 2.0938127701 -s 1 -d 2 -p udp -e 512 -c 2 -i 40 -a 2 -x {1.0 4.1 5 ------- null}
- -t 2.09716259 -s 1 -d 2 -p udp -e 512 -c 2 -i 38 -a 2 -x {1.1 5.1 2 ------- null}
h -t 2.09716259 -s 1 -d 2 -p udp -e 512 -c 2 -i 38 -a 2 -x {1.1 5.1 -1 ------- null}
r -t 2.09834 -s 2 -d 0 -p ack -e 40 -c 1 -i 22 -a 1 -x {4.0 0.0 5 ------- null}
+ -t 2.09834 -s 0 -d 2 -p tcp -e 1040 -c 1 -i 41 -a 1 -x {0.0 4.0 11 ------- null}
- -t 2.09834 -s 0 -d 2 -p tcp -e 1040 -c 1 -i 41 -a 1 -x {0.0 4.0 11 ------- null}
h -t 2.09834 -s 0 -d 2 -p tcp -e 1040 -c 1 -i 41 -a 1 -x {0.0 4.0 -1 ------- null}
+ -t 2.09834 -s 0 -d 2 -p tcp -e 1040 -c 1 -i 42 -a 1 -x {0.0 4.0 12 ------- null}
+ -t 2.1006481851 -s 1 -d 2 -p udp -e 512 -c 2 -i 43 -a 2 -x {1.1 5.1 3 ------- null}
r -t 2.1041 -s 5 -d 3 -p ack -e 40 -c 1 -i 28 -a 1 -x {5.0 0.1 6 ------- null}