+ 0.0001 0 2 tcp 40 ------- 1 0.0 4.0 0 0
- 0.0001 0 2 tcp 40 ------- 1 0.0 4.0 0 0
+ 0.016466 0 2 tcp 40 ------- 1 0.1 5.0 0 1
- 0.016466 0 2 tcp 40 ------- 1 0.1 5.0 0 1
r 0.10074 0 2 tcp 40 ------- 1 0.0 4.0 0 0
+ 0.10074 2 3 tcp 40 ------- 1 0.0 4.0 0 0
- 0.10074 2 3 tcp 40 ------- 1 0.0 4.0 0 0
r 0.117106 0 2 tcp 40 ------- 1 0.1 5.0 0 1
+ 0.117106 2 3 tcp 40 ------- 1 0.1 5.0 0 1
- 0.117106 2 3 tcp 40 ------- 1 0.1 5.0 0 1
r 0.20234 2 3 tcp 40 ------- 1 0.0 4.0 0 0
+ 0.20234 3 4 tcp 40 ------- 1 0.0 4.0 0 0
- 0.20234 3 4 tcp 40 ------- 1 0.0 4.0 0 0
r 0.218706 2 3 tcp 40 ------- 1 0.1 5.0 0 1
+ 0.218706 3 5 tcp 40 ------- 1 0.1 5.0 0 1
- 0.218706 3 5 tcp 40 ------- 1 0.1 5.0 0 1
r 0.30394 3 4 tcp 40 ------- 1 0.0 4.0 0 0
+ 0.30394 4 3 ack 40 ------- 1 4.0 0.0 0 2
- 0.30394 4 3 ack 40 ------- 1 4.0 0.0 0 2
r 0.320306 3 5 tcp 40 ------- 1 0.1 5.0 0 1
+ 0.320306 5 3 ack 40 ------- 1 5.0 0.1 0 3
- 0.320306 5 3 ack 40 ------- 1 5.0 0.1 0 3
r 0.40554 4 3 ack 40 ------- 1 4.0 0.0 0 2
+ 0.40554 3 2 ack 40 ------- 1 4.0 0.0 0 2
- 0.40554 3 2 ack 40 ------- 1 4.0 0.0 0 2
r 0.421906 5 3 ack 40 ------- 1 5.0 0.1 0 3
+ 0.421906 3 2 ack 40 ------- 1 5.0 0.1 0 3
- 0.421906 3 2 ack 40 ------- 1 5.0 0.1 0 3
r 0.50714 3 2 ack 40 ------- 1 4.0 0.0 0 2
+ 0.50714 2 0 ack 40 ------- 1 4.0 0.0 0 2
- 0.50714 2 0 ack 40 ------- 1 4.0 0.0 0 2
r 0.523506 3 2 ack 40 ------- 1 5.0 0.1 0 3
+ 0.523506 2 0 ack 40 ------- 1 5.0 0.1 0 3
- 0.523506 2 0 ack 40 ------- 1 5.0 0.1 0 3
r 0.60778 2 0 ack 40 ------- 1 4.0 0.0 0 2
+ 0.60778 0 2 tcp 1040 ------- 1 0.0 4.0 1 4
- 0.60778 0 2 tcp 1040 ------- 1 0.0 4.0 1 4
+ 0.60778 0 2 tcp 1040 ------- 1 0.0 4.0 2 5
r 0.624146 2 0 ack 40 ------- 1 5.0 0.1 0 3
+ 0.624146 0 2 tcp 1040 ------- 1 0.1 5.0 1 6
+ 0.624146 0 2 tcp 1040 ------- 1 0.1 5.0 2 7
- 0.62442 0 2 tcp 1040 ------- 1 0.0 4.0 2 5
- 0.64106 0 2 tcp 1040 ------- 1 0.1 5.0 1 6
- 0.6577 0 2 tcp 1040 ------- 1 0.1 5.0 2 7
r 0.72442 0 2 tcp 1040 ------- 1 0.0 4.0 1 4
+ 0.72442 2 3 tcp 1040 ------- 1 0.0 4.0 1 4
- 0.72442 2 3 tcp 1040 ------- 1 0.0 4.0 1 4
r 0.74106 0 2 tcp 1040 ------- 1 0.0 4.0 2 5
+ 0.74106 2 3 tcp 1040 ------- 1 0.0 4.0 2 5
r 0.7577 0 2 tcp 1040 ------- 1 0.1 5.0 1 6
+ 0.7577 2 3 tcp 1040 ------- 1 0.1 5.0 1 6
- 0.76602 2 3 tcp 1040 ------- 1 0.0 4.0 2 5
r 0.77434 0 2 tcp 1040 ------- 1 0.1 5.0 2 7
+ 0.77434 2 3 tcp 1040 ------- 1 0.1 5.0 2 7
- 0.80762 2 3 tcp 1040 ------- 1 0.1 5.0 1 6
- 0.84922 2 3 tcp 1040 ------- 1 0.1 5.0 2 7
r 0.86602 2 3 tcp 1040 ------- 1 0.0 4.0 1 4
+ 0.86602 3 4 tcp 1040 ------- 1 0.0 4.0 1 4
- 0.86602 3 4 tcp 1040 ------- 1 0.0 4.0 1 4
r 0.90762 2 3 tcp 1040 ------- 1 0.0 4.0 2 5
+ 0.90762 3 4 tcp 1040 ------- 1 0.0 4.0 2 5
- 0.90762 3 4 tcp 1040 ------- 1 0.0 4.0 2 5
r 0.94922 2 3 tcp 1040 ------- 1 0.1 5.0 1 6
+ 0.94922 3 5 tcp 1040 ------- 1 0.1 5.0 1 6
- 0.94922 3 5 tcp 1040 ------- 1 0.1 5.0 1 6
r 0.99082 2 3 tcp 1040 ------- 1 0.1 5.0 2 7
+ 0.99082 3 5 tcp 1040 ------- 1 0.1 5.0 2 7
- 0.99082 3 5 tcp 1040 ------- 1 0.1 5.0 2 7
r 1.00762 3 4 tcp 1040 ------- 1 0.0 4.0 1 4
+ 1.00762 4 3 ack 40 ------- 1 4.0 0.0 1 8
- 1.00762 4 3 ack 40 ------- 1 4.0 0.0 1 8
r 1.04922 3 4 tcp 1040 ------- 1 0.0 4.0 2 5
+ 1.04922 4 3 ack 40 ------- 1 4.0 0.0 2 9
- 1.04922 4 3 ack 40 ------- 1 4.0 0.0 2 9
r 1.09082 3 5 tcp 1040 ------- 1 0.1 5.0 1 6
+ 1.09082 5 3 ack 40 ------- 1 5.0 0.1 1 10
- 1.09082 5 3 ack 40 ------- 1 5.0 0.1 1 10
r 1.10922 4 3 ack 40 ------- 1 4.0 0.0 1 8
+ 1.10922 3 2 ack 40 ------- 1 4.0 0.0 1 8
- 1.10922 3 2 ack 40 ------- 1 4.0 0.0 1 8
r 1.13242 3 5 tcp 1040 ------- 1 0.1 5.0 2 7
+ 1.13242 5 3 ack 40 ------- 1 5.0 0.1 2 11
- 1.13242 5 3 ack 40 ------- 1 5.0 0.1 2 11
r 1.15082 4 3 ack 40 ------- 1 4.0 0.0 2 9
+ 1.15082 3 2 ack 40 ------- 1 4.0 0.0 2 9
- 1.15082 3 2 ack 40 ------- 1 4.0 0.0 2 9
r 1.19242 5 3 ack 40 ------- 1 5.0 0.1 1 10
+ 1.19242 3 2 ack 40 ------- 1 5.0 0.1 1 10
- 1.19242 3 2 ack 40 ------- 1 5.0 0.1 1 10
r 1.21082 3 2 ack 40 ------- 1 4.0 0.0 1 8
+ 1.21082 2 0 ack 40 ------- 1 4.0 0.0 1 8
- 1.21082 2 0 ack 40 ------- 1 4.0 0.0 1 8
r 1.23402 5 3 ack 40 ------- 1 5.0 0.1 2 11
+ 1.23402 3 2 ack 40 ------- 1 5.0 0.1 2 11
- 1.23402 3 2 ack 40 ------- 1 5.0 0.1 2 11
r 1.25242 3 2 ack 40 ------- 1 4.0 0.0 2 9
+ 1.25242 2 0 ack 40 ------- 1 4.0 0.0 2 9
- 1.25242 2 0 ack 40 ------- 1 4.0 0.0 2 9
r 1.29402 3 2 ack 40 ------- 1 5.0 0.1 1 10
+ 1.29402 2 0 ack 40 ------- 1 5.0 0.1 1 10
- 1.29402 2 0 ack 40 ------- 1 5.0 0.1 1 10
r 1.31146 2 0 ack 40 ------- 1 4.0 0.0 1 8
+ 1.31146 0 2 tcp 1040 ------- 1 0.0 4.0 3 12
- 1.31146 0 2 tcp 1040 ------- 1 0.0 4.0 3 12
+ 1.31146 0 2 tcp 1040 ------- 1 0.0 4.0 4 13
- 1.3281 0 2 tcp 1040 ------- 1 0.0 4.0 4 13
r 1.33562 3 2 ack 40 ------- 1 5.0 0.1 2 11
+ 1.33562 2 0 ack 40 ------- 1 5.0 0.1 2 11
- 1.33562 2 0 ack 40 ------- 1 5.0 0.1 2 11
r 1.35306 2 0 ack 40 ------- 1 4.0 0.0 2 9
+ 1.35306 0 2 tcp 1040 ------- 1 0.0 4.0 5 14
- 1.35306 0 2 tcp 1040 ------- 1 0.0 4.0 5 14
+ 1.35306 0 2 tcp 1040 ------- 1 0.0 4.0 6 15
- 1.3697 0 2 tcp 1040 ------- 1 0.0 4.0 6 15
r 1.39466 2 0 ack 40 ------- 1 5.0 0.1 1 10
+ 1.39466 0 2 tcp 1040 ------- 1 0.1 5.0 3 16
- 1.39466 0 2 tcp 1040 ------- 1 0.1 5.0 3 16
+ 1.39466 0 2 tcp 1040 ------- 1 0.1 5.0 4 17
- 1.4113 0 2 tcp 1040 ------- 1 0.1 5.0 4 17
r 1.4281 0 2 tcp 1040 ------- 1 0.0 4.0 3 12
+ 1.4281 2 3 tcp 1040 ------- 1 0.0 4.0 3 12
- 1.4281 2 3 tcp 1040 ------- 1 0.0 4.0 3 12
r 1.43626 2 0 ack 40 ------- 1 5.0 0.1 2 11
+ 1.43626 0 2 tcp 1040 ------- 1 0.1 5.0 5 18
- 1.43626 0 2 tcp 1040 ------- 1 0.1 5.0 5 18
+ 1.43626 0 2 tcp 1040 ------- 1 0.1 5.0 6 19
r 1.44474 0 2 tcp 1040 ------- 1 0.0 4.0 4 13
+ 1.44474 2 3 tcp 1040 ------- 1 0.0 4.0 4 13
- 1.4529 0 2 tcp 1040 ------- 1 0.1 5.0 6 19
r 1.4697 0 2 tcp 1040 ------- 1 0.0 4.0 5 14
+ 1.4697 2 3 tcp 1040 ------- 1 0.0 4.0 5 14
- 1.4697 2 3 tcp 1040 ------- 1 0.0 4.0 4 13
r 1.48634 0 2 tcp 1040 ------- 1 0.0 4.0 6 15
+ 1.48634 2 3 tcp 1040 ------- 1 0.0 4.0 6 15
r 1.5113 0 2 tcp 1040 ------- 1 0.1 5.0 3 16
+ 1.5113 2 3 tcp 1040 ------- 1 0.1 5.0 3 16
- 1.5113 2 3 tcp 1040 ------- 1 0.0 4.0 5 14
r 1.52794 0 2 tcp 1040 ------- 1 0.1 5.0 4 17
+ 1.52794 2 3 tcp 1040 ------- 1 0.1 5.0 4 17
r 1.5529 0 2 tcp 1040 ------- 1 0.1 5.0 5 18
+ 1.5529 2 3 tcp 1040 ------- 1 0.1 5.0 5 18
- 1.5529 2 3 tcp 1040 ------- 1 0.0 4.0 6 15
r 1.56954 0 2 tcp 1040 ------- 1 0.1 5.0 6 19
+ 1.56954 2 3 tcp 1040 ------- 1 0.1 5.0 6 19
r 1.5697 2 3 tcp 1040 ------- 1 0.0 4.0 3 12
+ 1.5697 3 4 tcp 1040 ------- 1 0.0 4.0 3 12
- 1.5697 3 4 tcp 1040 ------- 1 0.0 4.0 3 12
- 1.5945 2 3 tcp 1040 ------- 1 0.1 5.0 3 16
r 1.6113 2 3 tcp 1040 ------- 1 0.0 4.0 4 13
+ 1.6113 3 4 tcp 1040 ------- 1 0.0 4.0 4 13
- 1.6113 3 4 tcp 1040 ------- 1 0.0 4.0 4 13
- 1.6361 2 3 tcp 1040 ------- 1 0.1 5.0 4 17
r 1.6529 2 3 tcp 1040 ------- 1 0.0 4.0 5 14
+ 1.6529 3 4 tcp 1040 ------- 1 0.0 4.0 5 14
- 1.6529 3 4 tcp 1040 ------- 1 0.0 4.0 5 14
- 1.6777 2 3 tcp 1040 ------- 1 0.1 5.0 5 18
r 1.6945 2 3 tcp 1040 ------- 1 0.0 4.0 6 15
+ 1.6945 3 4 tcp 1040 ------- 1 0.0 4.0 6 15
- 1.6945 3 4 tcp 1040 ------- 1 0.0 4.0 6 15
r 1.7113 3 4 tcp 1040 ------- 1 0.0 4.0 3 12
+ 1.7113 4 3 ack 40 ------- 1 4.0 0.0 3 20
- 1.7113 4 3 ack 40 ------- 1 4.0 0.0 3 20
- 1.7193 2 3 tcp 1040 ------- 1 0.1 5.0 6 19
r 1.7361 2 3 tcp 1040 ------- 1 0.1 5.0 3 16
+ 1.7361 3 5 tcp 1040 ------- 1 0.1 5.0 3 16
- 1.7361 3 5 tcp 1040 ------- 1 0.1 5.0 3 16
r 1.7529 3 4 tcp 1040 ------- 1 0.0 4.0 4 13
+ 1.7529 4 3 ack 40 ------- 1 4.0 0.0 4 21
- 1.7529 4 3 ack 40 ------- 1 4.0 0.0 4 21
r 1.7777 2 3 tcp 1040 ------- 1 0.1 5.0 4 17
+ 1.7777 3 5 tcp 1040 ------- 1 0.1 5.0 4 17
- 1.7777 3 5 tcp 1040 ------- 1 0.1 5.0 4 17
r 1.7945 3 4 tcp 1040 ------- 1 0.0 4.0 5 14
+ 1.7945 4 3 ack 40 ------- 1 4.0 0.0 5 22
- 1.7945 4 3 ack 40 ------- 1 4.0 0.0 5 22
r 1.8129 4 3 ack 40 ------- 1 4.0 0.0 3 20
+ 1.8129 3 2 ack 40 ------- 1 4.0 0.0 3 20
- 1.8129 3 2 ack 40 ------- 1 4.0 0.0 3 20
r 1.8193 2 3 tcp 1040 ------- 1 0.1 5.0 5 18
+ 1.8193 3 5 tcp 1040 ------- 1 0.1 5.0 5 18
- 1.8193 3 5 tcp 1040 ------- 1 0.1 5.0 5 18
r 1.8361 3 4 tcp 1040 ------- 1 0.0 4.0 6 15
+ 1.8361 4 3 ack 40 ------- 1 4.0 0.0 6 23
- 1.8361 4 3 ack 40 ------- 1 4.0 0.0 6 23
r 1.8545 4 3 ack 40 ------- 1 4.0 0.0 4 21
+ 1.8545 3 2 ack 40 ------- 1 4.0 0.0 4 21
- 1.8545 3 2 ack 40 ------- 1 4.0 0.0 4 21
r 1.8609 2 3 tcp 1040 ------- 1 0.1 5.0 6 19
+ 1.8609 3 5 tcp 1040 ------- 1 0.1 5.0 6 19
- 1.8609 3 5 tcp 1040 ------- 1 0.1 5.0 6 19
r 1.8777 3 5 tcp 1040 ------- 1 0.1 5.0 3 16
+ 1.8777 5 3 ack 40 ------- 1 5.0 0.1 3 24
- 1.8777 5 3 ack 40 ------- 1 5.0 0.1 3 24
r 1.8961 4 3 ack 40 ------- 1 4.0 0.0 5 22
+ 1.8961 3 2 ack 40 ------- 1 4.0 0.0 5 22
- 1.8961 3 2 ack 40 ------- 1 4.0 0.0 5 22
r 1.9145 3 2 ack 40 ------- 1 4.0 0.0 3 20
+ 1.9145 2 0 ack 40 ------- 1 4.0 0.0 3 20
- 1.9145 2 0 ack 40 ------- 1 4.0 0.0 3 20
r 1.9193 3 5 tcp 1040 ------- 1 0.1 5.0 4 17
+ 1.9193 5 3 ack 40 ------- 1 5.0 0.1 4 25
- 1.9193 5 3 ack 40 ------- 1 5.0 0.1 4 25
r 1.9377 4 3 ack 40 ------- 1 4.0 0.0 6 23
+ 1.9377 3 2 ack 40 ------- 1 4.0 0.0 6 23
- 1.9377 3 2 ack 40 ------- 1 4.0 0.0 6 23
r 1.9561 3 2 ack 40 ------- 1 4.0 0.0 4 21
+ 1.9561 2 0 ack 40 ------- 1 4.0 0.0 4 21
- 1.9561 2 0 ack 40 ------- 1 4.0 0.0 4 21
r 1.9609 3 5 tcp 1040 ------- 1 0.1 5.0 5 18
+ 1.9609 5 3 ack 40 ------- 1 5.0 0.1 5 26
- 1.9609 5 3 ack 40 ------- 1 5.0 0.1 5 26
r 1.9793 5 3 ack 40 ------- 1 5.0 0.1 3 24
+ 1.9793 3 2 ack 40 ------- 1 5.0 0.1 3 24
- 1.9793 3 2 ack 40 ------- 1 5.0 0.1 3 24
r 1.9977 3 2 ack 40 ------- 1 4.0 0.0 5 22
+ 1.9977 2 0 ack 40 ------- 1 4.0 0.0 5 22
- 1.9977 2 0 ack 40 ------- 1 4.0 0.0 5 22
+ 2.0001 1 2 udp 512 ------- 2 1.0 4.1 0 27
- 2.0001 1 2 udp 512 ------- 2 1.0 4.1 0 27
r 2.0025 3 5 tcp 1040 ------- 1 0.1 5.0 6 19
+ 2.0025 5 3 ack 40 ------- 1 5.0 0.1 6 28
- 2.0025 5 3 ack 40 ------- 1 5.0 0.1 6 28
r 2.01514 2 0 ack 40 ------- 1 4.0 0.0 3 20
+ 2.01514 0 2 tcp 1040 ------- 1 0.0 4.0 7 29
- 2.01514 0 2 tcp 1040 ------- 1 0.0 4.0 7 29
+ 2.01514 0 2 tcp 1040 ------- 1 0.0 4.0 8 30
r 2.0209 5 3 ack 40 ------- 1 5.0 0.1 4 25
+ 2.0209 3 2 ack 40 ------- 1 5.0 0.1 4 25
- 2.0209 3 2 ack 40 ------- 1 5.0 0.1 4 25
- 2.03178 0 2 tcp 1040 ------- 1 0.0 4.0 8 30
r 2.0393 3 2 ack 40 ------- 1 4.0 0.0 6 23
+ 2.0393 2 0 ack 40 ------- 1 4.0 0.0 6 23
- 2.0393 2 0 ack 40 ------- 1 4.0 0.0 6 23
+ 2.046532 1 2 udp 512 ------- 2 1.1 5.1 0 31
- 2.046532 1 2 udp 512 ------- 2 1.1 5.1 0 31
r 2.05674 2 0 ack 40 ------- 1 4.0 0.0 4 21
+ 2.05674 0 2 tcp 1040 ------- 1 0.0 4.0 9 32
- 2.05674 0 2 tcp 1040 ------- 1 0.0 4.0 9 32
+ 2.05674 0 2 tcp 1040 ------- 1 0.0 4.0 10 33
r 2.0625 5 3 ack 40 ------- 1 5.0 0.1 5 26
+ 2.0625 3 2 ack 40 ------- 1 5.0 0.1 5 26
- 2.0625 3 2 ack 40 ------- 1 5.0 0.1 5 26
+ 2.064395 1 2 udp 512 ------- 2 1.0 4.1 1 34
- 2.064395 1 2 udp 512 ------- 2 1.0 4.1 1 34
+ 2.070184 1 2 udp 512 ------- 2 1.0 4.1 2 35
+ 2.070462 1 2 udp 512 ------- 2 1.1 5.1 1 36
- 2.072587 1 2 udp 512 ------- 2 1.0 4.1 2 35
- 2.07338 0 2 tcp 1040 ------- 1 0.0 4.0 10 33
+ 2.074995 1 2 udp 512 ------- 2 1.0 4.1 3 37
- 2.080779 1 2 udp 512 ------- 2 1.1 5.1 1 36
r 2.0809 3 2 ack 40 ------- 1 5.0 0.1 3 24
+ 2.0809 2 0 ack 40 ------- 1 5.0 0.1 3 24
- 2.0809 2 0 ack 40 ------- 1 5.0 0.1 3 24
+ 2.088922 1 2 udp 512 ------- 2 1.1 5.1 2 38
- 2.088971 1 2 udp 512 ------- 2 1.0 4.1 3 37
+ 2.090954 1 2 udp 512 ------- 2 1.0 4.1 4 39
+ 2.093813 1 2 udp 512 ------- 2 1.0 4.1 5 40
- 2.097163 1 2 udp 512 ------- 2 1.1 5.1 2 38
r 2.09834 2 0 ack 40 ------- 1 4.0 0.0 5 22
+ 2.09834 0 2 tcp 1040 ------- 1 0.0 4.0 11 41
- 2.09834 0 2 tcp 1040 ------- 1 0.0 4.0 11 41
+ 2.09834 0 2 tcp 1040 ------- 1 0.0 4.0 12 42
+ 2.100648 1 2 udp 512 ------- 2 1.1 5.1 3 43
r 2.1041 5 3 ack 40 ------- 1 5.0 0.1 6 28
+ 2.1041 3 2 ack 40 ------- 1 5.0 0.1 6 28
- 2.1041 3 2 ack 40 ------- 1 5.0 0.1 6 28
- 2.105355 1 2 udp 512 ------- 2 1.0 4.1 4 39
r 2.108292 1 2 udp 512 ------- 2 1.0 4.1 0 27
+ 2.108292 2 3 udp 512 ------- 2 1.0 4.1 0 27
- 2.108292 2 3 udp 512 ------- 2 1.0 4.1 0 27
+ 2.11103 1 2 udp 512 ------- 2 1.1 5.1 4 44
- 2.113547 1 2 udp 512 ------- 2 1.0 4.1 5 40
- 2.11498 0 2 tcp 1040 ------- 1 0.0 4.0 12 42
- 2.121739 1 2 udp 512 ------- 2 1.1 5.1 3 43
r 2.1225 3 2 ack 40 ------- 1 5.0 0.1 4 25
+ 2.1225 2 0 ack 40 ------- 1 5.0 0.1 4 25
- 2.1225 2 0 ack 40 ------- 1 5.0 0.1 4 25
+ 2.123228 1 2 udp 512 ------- 2 1.1 5.1 5 45
- 2.129931 1 2 udp 512 ------- 2 1.1 5.1 4 44
+ 2.130634 1 2 udp 512 ------- 2 1.1 5.1 6 46
r 2.13178 0 2 tcp 1040 ------- 1 0.0 4.0 7 29
+ 2.13178 2 3 tcp 1040 ------- 1 0.0 4.0 7 29
- 2.13178 2 3 tcp 1040 ------- 1 0.0 4.0 7 29
- 2.138123 1 2 udp 512 ------- 2 1.1 5.1 5 45
+ 2.138968 1 2 udp 512 ------- 2 1.0 4.1 6 47
r 2.13994 2 0 ack 40 ------- 1 4.0 0.0 6 23
+ 2.13994 0 2 tcp 1040 ------- 1 0.0 4.0 13 48
- 2.13994 0 2 tcp 1040 ------- 1 0.0 4.0 13 48
+ 2.13994 0 2 tcp 1040 ------- 1 0.0 4.0 14 49
- 2.146315 1 2 udp 512 ------- 2 1.1 5.1 6 46
r 2.14842 0 2 tcp 1040 ------- 1 0.0 4.0 8 30
+ 2.14842 2 3 tcp 1040 ------- 1 0.0 4.0 8 30
- 2.154507 1 2 udp 512 ------- 2 1.0 4.1 6 47
r 2.154724 1 2 udp 512 ------- 2 1.1 5.1 0 31
+ 2.154724 2 3 udp 512 ------- 2 1.1 5.1 0 31
- 2.15658 0 2 tcp 1040 ------- 1 0.0 4.0 14 49
r 2.1641 3 2 ack 40 ------- 1 5.0 0.1 5 26
+ 2.1641 2 0 ack 40 ------- 1 5.0 0.1 5 26
- 2.1641 2 0 ack 40 ------- 1 5.0 0.1 5 26
r 2.172587 1 2 udp 512 ------- 2 1.0 4.1 1 34
+ 2.172587 2 3 udp 512 ------- 2 1.0 4.1 1 34
r 2.17338 0 2 tcp 1040 ------- 1 0.0 4.0 9 32
+ 2.17338 2 3 tcp 1040 ------- 1 0.0 4.0 9 32
- 2.17338 2 3 tcp 1040 ------- 1 0.0 4.0 8 30
+ 2.176291 1 2 udp 512 ------- 2 1.1 5.1 7 50
- 2.176291 1 2 udp 512 ------- 2 1.1 5.1 7 50
+ 2.177158 1 2 udp 512 ------- 2 1.1 5.1 8 51
r 2.180779 1 2 udp 512 ------- 2 1.0 4.1 2 35
+ 2.180779 2 3 udp 512 ------- 2 1.0 4.1 2 35
+ 2.181075 1 2 udp 512 ------- 2 1.0 4.1 7 52
r 2.18154 2 0 ack 40 ------- 1 5.0 0.1 3 24
+ 2.18154 0 2 tcp 1040 ------- 1 0.1 5.0 7 53
- 2.18154 0 2 tcp 1040 ------- 1 0.1 5.0 7 53
+ 2.18154 0 2 tcp 1040 ------- 1 0.1 5.0 8 54
- 2.184483 1 2 udp 512 ------- 2 1.1 5.1 8 51
r 2.188971 1 2 udp 512 ------- 2 1.1 5.1 1 36
+ 2.188971 2 3 udp 512 ------- 2 1.1 5.1 1 36
d 2.188971 2 3 udp 512 ------- 2 1.1 5.1 1 36
r 2.19002 0 2 tcp 1040 ------- 1 0.0 4.0 10 33
+ 2.19002 2 3 tcp 1040 ------- 1 0.0 4.0 10 33
d 2.19002 2 3 tcp 1040 ------- 1 0.0 4.0 10 33
- 2.192675 1 2 udp 512 ------- 2 1.0 4.1 7 52
r 2.197163 1 2 udp 512 ------- 2 1.0 4.1 3 37
+ 2.197163 2 3 udp 512 ------- 2 1.0 4.1 3 37
d 2.197163 2 3 udp 512 ------- 2 1.0 4.1 3 37
- 2.19818 0 2 tcp 1040 ------- 1 0.1 5.0 8 54
r 2.205355 1 2 udp 512 ------- 2 1.1 5.1 2 38
+ 2.205355 2 3 udp 512 ------- 2 1.1 5.1 2 38
d 2.205355 2 3 udp 512 ------- 2 1.1 5.1 2 38
r 2.2057 3 2 ack 40 ------- 1 5.0 0.1 6 28
+ 2.2057 2 0 ack 40 ------- 1 5.0 0.1 6 28
- 2.2057 2 0 ack 40 ------- 1 5.0 0.1 6 28
+ 2.208353 1 2 udp 512 ------- 2 1.0 4.1 8 55
- 2.208353 1 2 udp 512 ------- 2 1.0 4.1 8 55
r 2.213547 1 2 udp 512 ------- 2 1.0 4.1 4 39
+ 2.213547 2 3 udp 512 ------- 2 1.0 4.1 4 39
d 2.213547 2 3 udp 512 ------- 2 1.0 4.1 4 39
- 2.21498 2 3 udp 512 ------- 2 1.1 5.1 0 31
r 2.21498 0 2 tcp 1040 ------- 1 0.0 4.0 11 41
+ 2.21498 2 3 tcp 1040 ------- 1 0.0 4.0 11 41
r 2.221739 1 2 udp 512 ------- 2 1.0 4.1 5 40
+ 2.221739 2 3 udp 512 ------- 2 1.0 4.1 5 40
d 2.221739 2 3 udp 512 ------- 2 1.0 4.1 5 40
r 2.22314 2 0 ack 40 ------- 1 5.0 0.1 4 25
+ 2.22314 0 2 tcp 1040 ------- 1 0.1 5.0 9 56
- 2.22314 0 2 tcp 1040 ------- 1 0.1 5.0 9 56
+ 2.22314 0 2 tcp 1040 ------- 1 0.1 5.0 10 57
+ 2.228146 1 2 udp 512 ------- 2 1.0 4.1 9 58
- 2.228146 1 2 udp 512 ------- 2 1.0 4.1 9 58
r 2.228772 2 3 udp 512 ------- 2 1.0 4.1 0 27
+ 2.228772 3 4 udp 512 ------- 2 1.0 4.1 0 27
- 2.228772 3 4 udp 512 ------- 2 1.0 4.1 0 27
r 2.229931 1 2 udp 512 ------- 2 1.1 5.1 3 43
+ 2.229931 2 3 udp 512 ------- 2 1.1 5.1 3 43
d 2.229931 2 3 udp 512 ------- 2 1.1 5.1 3 43
r 2.23162 0 2 tcp 1040 ------- 1 0.0 4.0 12 42
+ 2.23162 2 3 tcp 1040 ------- 1 0.0 4.0 12 42
d 2.23162 2 3 tcp 1040 ------- 1 0.0 4.0 12 42
- 2.23546 2 3 udp 512 ------- 2 1.0 4.1 1 34
r 2.238123 1 2 udp 512 ------- 2 1.1 5.1 4 44
+ 2.238123 2 3 udp 512 ------- 2 1.1 5.1 4 44
+ 2.239242 1 2 udp 512 ------- 2 1.0 4.1 10 59
- 2.239242 1 2 udp 512 ------- 2 1.0 4.1 10 59
+ 2.239306 1 2 udp 512 ------- 2 1.1 5.1 9 60
- 2.23978 0 2 tcp 1040 ------- 1 0.1 5.0 10 57
r 2.246315 1 2 udp 512 ------- 2 1.1 5.1 5 45
+ 2.246315 2 3 udp 512 ------- 2 1.1 5.1 5 45
d 2.246315 2 3 udp 512 ------- 2 1.1 5.1 5 45
- 2.247434 1 2 udp 512 ------- 2 1.1 5.1 9 60
r 2.254507 1 2 udp 512 ------- 2 1.1 5.1 6 46
+ 2.254507 2 3 udp 512 ------- 2 1.1 5.1 6 46
d 2.254507 2 3 udp 512 ------- 2 1.1 5.1 6 46
+ 2.255648 1 2 udp 512 ------- 2 1.0 4.1 11 61
- 2.255648 1 2 udp 512 ------- 2 1.0 4.1 11 61
- 2.25594 2 3 tcp 1040 ------- 1 0.0 4.0 9 32
r 2.25658 0 2 tcp 1040 ------- 1 0.0 4.0 13 48
+ 2.25658 2 3 tcp 1040 ------- 1 0.0 4.0 13 48
+ 2.25973 1 2 udp 512 ------- 2 1.1 5.1 10 62
r 2.262699 1 2 udp 512 ------- 2 1.0 4.1 6 47
+ 2.262699 2 3 udp 512 ------- 2 1.0 4.1 6 47
d 2.262699 2 3 udp 512 ------- 2 1.0 4.1 6 47
- 2.26384 1 2 udp 512 ------- 2 1.1 5.1 10 62
r 2.26474 2 0 ack 40 ------- 1 5.0 0.1 5 26
+ 2.26474 0 2 tcp 1040 ------- 1 0.1 5.0 11 63
- 2.26474 0 2 tcp 1040 ------- 1 0.1 5.0 11 63
+ 2.26474 0 2 tcp 1040 ------- 1 0.1 5.0 12 64
+ 2.266365 1 2 udp 512 ------- 2 1.0 4.1 12 65
- 2.272032 1 2 udp 512 ------- 2 1.0 4.1 12 65
r 2.27322 0 2 tcp 1040 ------- 1 0.0 4.0 14 49
+ 2.27322 2 3 tcp 1040 ------- 1 0.0 4.0 14 49
d 2.27322 2 3 tcp 1040 ------- 1 0.0 4.0 14 49
r 2.27338 2 3 tcp 1040 ------- 1 0.0 4.0 7 29
+ 2.27338 3 4 tcp 1040 ------- 1 0.0 4.0 7 29
- 2.27338 3 4 tcp 1040 ------- 1 0.0 4.0 7 29
+ 2.279698 1 2 udp 512 ------- 2 1.0 4.1 13 66
- 2.280224 1 2 udp 512 ------- 2 1.0 4.1 13 66
- 2.28138 0 2 tcp 1040 ------- 1 0.1 5.0 12 64
r 2.284483 1 2 udp 512 ------- 2 1.1 5.1 7 50
+ 2.284483 2 3 udp 512 ------- 2 1.1 5.1 7 50
d 2.284483 2 3 udp 512 ------- 2 1.1 5.1 7 50
r 2.292675 1 2 udp 512 ------- 2 1.1 5.1 8 51
+ 2.292675 2 3 udp 512 ------- 2 1.1 5.1 8 51
d 2.292675 2 3 udp 512 ------- 2 1.1 5.1 8 51
- 2.29754 2 3 udp 512 ------- 2 1.0 4.1 2 35
r 2.29818 0 2 tcp 1040 ------- 1 0.1 5.0 7 53
+ 2.29818 2 3 tcp 1040 ------- 1 0.1 5.0 7 53
r 2.300867 1 2 udp 512 ------- 2 1.0 4.1 7 52
+ 2.300867 2 3 udp 512 ------- 2 1.0 4.1 7 52
d 2.300867 2 3 udp 512 ------- 2 1.0 4.1 7 52
r 2.30634 2 0 ack 40 ------- 1 5.0 0.1 6 28
+ 2.30634 0 2 tcp 1040 ------- 1 0.1 5.0 13 67
- 2.30634 0 2 tcp 1040 ------- 1 0.1 5.0 13 67
+ 2.30634 0 2 tcp 1040 ------- 1 0.1 5.0 14 68
+ 2.311165 1 2 udp 512 ------- 2 1.1 5.1 11 69
- 2.311165 1 2 udp 512 ------- 2 1.1 5.1 11 69
r 2.31482 0 2 tcp 1040 ------- 1 0.1 5.0 8 54
+ 2.31482 2 3 tcp 1040 ------- 1 0.1 5.0 8 54
d 2.31482 2 3 tcp 1040 ------- 1 0.1 5.0 8 54
r 2.31498 2 3 tcp 1040 ------- 1 0.0 4.0 8 30
+ 2.31498 3 4 tcp 1040 ------- 1 0.0 4.0 8 30
- 2.31498 3 4 tcp 1040 ------- 1 0.0 4.0 8 30
r 2.316545 1 2 udp 512 ------- 2 1.0 4.1 8 55
+ 2.316545 2 3 udp 512 ------- 2 1.0 4.1 8 55
d 2.316545 2 3 udp 512 ------- 2 1.0 4.1 8 55
- 2.31802 2 3 tcp 1040 ------- 1 0.0 4.0 11 41
- 2.32298 0 2 tcp 1040 ------- 1 0.1 5.0 14 68
+ 2.329635 1 2 udp 512 ------- 2 1.1 5.1 12 70
- 2.329635 1 2 udp 512 ------- 2 1.1 5.1 12 70
+ 2.333867 1 2 udp 512 ------- 2 1.0 4.1 14 71
+ 2.334061 1 2 udp 512 ------- 2 1.0 4.1 15 72
r 2.33546 2 3 udp 512 ------- 2 1.1 5.1 0 31
+ 2.33546 3 5 udp 512 ------- 2 1.1 5.1 0 31
- 2.33546 3 5 udp 512 ------- 2 1.1 5.1 0 31
r 2.336338 1 2 udp 512 ------- 2 1.0 4.1 9 58
+ 2.336338 2 3 udp 512 ------- 2 1.0 4.1 9 58
- 2.337827 1 2 udp 512 ------- 2 1.0 4.1 14 71
r 2.33978 0 2 tcp 1040 ------- 1 0.1 5.0 9 56
+ 2.33978 2 3 tcp 1040 ------- 1 0.1 5.0 9 56
d 2.33978 2 3 tcp 1040 ------- 1 0.1 5.0 9 56
+ 2.341687 1 2 udp 512 ------- 2 1.0 4.1 16 73
- 2.346019 1 2 udp 512 ------- 2 1.0 4.1 15 72
r 2.347434 1 2 udp 512 ------- 2 1.0 4.1 10 59
+ 2.347434 2 3 udp 512 ------- 2 1.0 4.1 10 59
d 2.347434 2 3 udp 512 ------- 2 1.0 4.1 10 59
r 2.349252 3 4 udp 512 ------- 2 1.0 4.1 0 27
- 2.354211 1 2 udp 512 ------- 2 1.0 4.1 16 73
r 2.355626 1 2 udp 512 ------- 2 1.1 5.1 9 60
+ 2.355626 2 3 udp 512 ------- 2 1.1 5.1 9 60
d 2.355626 2 3 udp 512 ------- 2 1.1 5.1 9 60
r 2.35594 2 3 udp 512 ------- 2 1.0 4.1 1 34
+ 2.35594 3 4 udp 512 ------- 2 1.0 4.1 1 34
r 2.35642 0 2 tcp 1040 ------- 1 0.1 5.0 10 57
+ 2.35642 2 3 tcp 1040 ------- 1 0.1 5.0 10 57
d 2.35642 2 3 tcp 1040 ------- 1 0.1 5.0 10 57
- 2.35658 3 4 udp 512 ------- 2 1.0 4.1 1 34
- 2.35962 2 3 udp 512 ------- 2 1.1 5.1 4 44
r 2.36384 1 2 udp 512 ------- 2 1.0 4.1 11 61
+ 2.36384 2 3 udp 512 ------- 2 1.0 4.1 11 61
r 2.372032 1 2 udp 512 ------- 2 1.1 5.1 10 62
+ 2.372032 2 3 udp 512 ------- 2 1.1 5.1 10 62
d 2.372032 2 3 udp 512 ------- 2 1.1 5.1 10 62
+ 2.378136 1 2 udp 512 ------- 2 1.0 4.1 17 74
- 2.378136 1 2 udp 512 ------- 2 1.0 4.1 17 74
- 2.3801 2 3 tcp 1040 ------- 1 0.0 4.0 13 48
r 2.380224 1 2 udp 512 ------- 2 1.0 4.1 12 65
+ 2.380224 2 3 udp 512 ------- 2 1.0 4.1 12 65
r 2.38138 0 2 tcp 1040 ------- 1 0.1 5.0 11 63
+ 2.38138 2 3 tcp 1040 ------- 1 0.1 5.0 11 63
d 2.38138 2 3 tcp 1040 ------- 1 0.1 5.0 11 63
+ 2.383245 1 2 udp 512 ------- 2 1.1 5.1 13 75
- 2.386328 1 2 udp 512 ------- 2 1.1 5.1 13 75
r 2.388416 1 2 udp 512 ------- 2 1.0 4.1 13 66
+ 2.388416 2 3 udp 512 ------- 2 1.0 4.1 13 66
d 2.388416 2 3 udp 512 ------- 2 1.0 4.1 13 66
+ 2.388767 1 2 udp 512 ------- 2 1.1 5.1 14 76
- 2.39452 1 2 udp 512 ------- 2 1.1 5.1 14 76
r 2.39754 2 3 tcp 1040 ------- 1 0.0 4.0 9 32
+ 2.39754 3 4 tcp 1040 ------- 1 0.0 4.0 9 32
- 2.39754 3 4 tcp 1040 ------- 1 0.0 4.0 9 32
r 2.39802 0 2 tcp 1040 ------- 1 0.1 5.0 12 64
+ 2.39802 2 3 tcp 1040 ------- 1 0.1 5.0 12 64
d 2.39802 2 3 tcp 1040 ------- 1 0.1 5.0 12 64
+ 2.40492 1 2 udp 512 ------- 2 1.0 4.1 18 77
- 2.40492 1 2 udp 512 ------- 2 1.0 4.1 18 77
r 2.41498 3 4 tcp 1040 ------- 1 0.0 4.0 7 29
+ 2.41498 4 3 ack 40 ------- 1 4.0 0.0 7 78
- 2.41498 4 3 ack 40 ------- 1 4.0 0.0 7 78
r 2.41802 2 3 udp 512 ------- 2 1.0 4.1 2 35
+ 2.41802 3 4 udp 512 ------- 2 1.0 4.1 2 35
r 2.419357 1 2 udp 512 ------- 2 1.1 5.1 11 69
+ 2.419357 2 3 udp 512 ------- 2 1.1 5.1 11 69
d 2.419357 2 3 udp 512 ------- 2 1.1 5.1 11 69
- 2.4217 2 3 tcp 1040 ------- 1 0.1 5.0 7 53
r 2.42298 0 2 tcp 1040 ------- 1 0.1 5.0 13 67
+ 2.42298 2 3 tcp 1040 ------- 1 0.1 5.0 13 67
r 2.437827 1 2 udp 512 ------- 2 1.1 5.1 12 70
+ 2.437827 2 3 udp 512 ------- 2 1.1 5.1 12 70
d 2.437827 2 3 udp 512 ------- 2 1.1 5.1 12 70
- 2.43914 3 4 udp 512 ------- 2 1.0 4.1 2 35
r 2.43962 0 2 tcp 1040 ------- 1 0.1 5.0 14 68
+ 2.43962 2 3 tcp 1040 ------- 1 0.1 5.0 14 68
d 2.43962 2 3 tcp 1040 ------- 1 0.1 5.0 14 68
r 2.446019 1 2 udp 512 ------- 2 1.0 4.1 14 71
+ 2.446019 2 3 udp 512 ------- 2 1.0 4.1 14 71
d 2.446019 2 3 udp 512 ------- 2 1.0 4.1 14 71
+ 2.454056 1 2 udp 512 ------- 2 1.0 4.1 19 79
- 2.454056 1 2 udp 512 ------- 2 1.0 4.1 19 79
r 2.454211 1 2 udp 512 ------- 2 1.0 4.1 15 72
+ 2.454211 2 3 udp 512 ------- 2 1.0 4.1 15 72
d 2.454211 2 3 udp 512 ------- 2 1.0 4.1 15 72
r 2.45594 3 5 udp 512 ------- 2 1.1 5.1 0 31
r 2.45658 3 4 tcp 1040 ------- 1 0.0 4.0 8 30
+ 2.45658 4 3 ack 40 ------- 1 4.0 0.0 8 80
- 2.45658 4 3 ack 40 ------- 1 4.0 0.0 8 80
r 2.45962 2 3 tcp 1040 ------- 1 0.0 4.0 11 41
+ 2.45962 3 4 tcp 1040 ------- 1 0.0 4.0 11 41
- 2.45962 3 4 tcp 1040 ------- 1 0.0 4.0 11 41
r 2.462403 1 2 udp 512 ------- 2 1.0 4.1 16 73
+ 2.462403 2 3 udp 512 ------- 2 1.0 4.1 16 73
d 2.462403 2 3 udp 512 ------- 2 1.0 4.1 16 73
+ 2.462597 1 2 udp 512 ------- 2 1.1 5.1 15 81
- 2.462597 1 2 udp 512 ------- 2 1.1 5.1 15 81
- 2.4633 2 3 udp 512 ------- 2 1.0 4.1 9 58
r 2.47706 3 4 udp 512 ------- 2 1.0 4.1 1 34
r 2.4801 2 3 udp 512 ------- 2 1.1 5.1 4 44
+ 2.4801 3 5 udp 512 ------- 2 1.1 5.1 4 44
- 2.4801 3 5 udp 512 ------- 2 1.1 5.1 4 44
- 2.48378 2 3 udp 512 ------- 2 1.0 4.1 11 61
r 2.486328 1 2 udp 512 ------- 2 1.0 4.1 17 74
+ 2.486328 2 3 udp 512 ------- 2 1.0 4.1 17 74
+ 2.492763 1 2 udp 512 ------- 2 1.1 5.1 16 82
- 2.492763 1 2 udp 512 ------- 2 1.1 5.1 16 82
r 2.49452 1 2 udp 512 ------- 2 1.1 5.1 13 75
+ 2.49452 2 3 udp 512 ------- 2 1.1 5.1 13 75
+ 2.49489 1 2 udp 512 ------- 2 1.0 4.1 20 83
+ 2.497457 1 2 udp 512 ------- 2 1.0 4.1 21 84
- 2.500955 1 2 udp 512 ------- 2 1.0 4.1 20 83
r 2.502712 1 2 udp 512 ------- 2 1.1 5.1 14 76
+ 2.502712 2 3 udp 512 ------- 2 1.1 5.1 14 76
d 2.502712 2 3 udp 512 ------- 2 1.1 5.1 14 76
- 2.50426 2 3 udp 512 ------- 2 1.0 4.1 12 65
- 2.509147 1 2 udp 512 ------- 2 1.0 4.1 21 84
r 2.513112 1 2 udp 512 ------- 2 1.0 4.1 18 77
+ 2.513112 2 3 udp 512 ------- 2 1.0 4.1 18 77
r 2.51658 4 3 ack 40 ------- 1 4.0 0.0 7 78
+ 2.51658 3 2 ack 40 ------- 1 4.0 0.0 7 78
- 2.51658 3 2 ack 40 ------- 1 4.0 0.0 7 78
r 2.5217 2 3 tcp 1040 ------- 1 0.0 4.0 13 48
+ 2.5217 3 4 tcp 1040 ------- 1 0.0 4.0 13 48
- 2.5217 3 4 tcp 1040 ------- 1 0.0 4.0 13 48
+ 2.523563 1 2 udp 512 ------- 2 1.1 5.1 17 85
- 2.523563 1 2 udp 512 ------- 2 1.1 5.1 17 85
- 2.52474 2 3 tcp 1040 ------- 1 0.1 5.0 13 67
+ 2.533794 1 2 udp 512 ------- 2 1.0 4.1 22 86
- 2.533794 1 2 udp 512 ------- 2 1.0 4.1 22 86
r 2.53914 3 4 tcp 1040 ------- 1 0.0 4.0 9 32
+ 2.53914 4 3 ack 40 ------- 1 4.0 0.0 9 87
- 2.53914 4 3 ack 40 ------- 1 4.0 0.0 9 87
+ 2.545686 1 2 udp 512 ------- 2 1.1 5.1 18 88
- 2.545686 1 2 udp 512 ------- 2 1.1 5.1 18 88
+ 2.555558 1 2 udp 512 ------- 2 1.1 5.1 19 89
- 2.555558 1 2 udp 512 ------- 2 1.1 5.1 19 89
r 2.55818 4 3 ack 40 ------- 1 4.0 0.0 8 80
+ 2.55818 3 2 ack 40 ------- 1 4.0 0.0 8 80
- 2.55818 3 2 ack 40 ------- 1 4.0 0.0 8 80
r 2.55962 3 4 udp 512 ------- 2 1.0 4.1 2 35
r 2.562248 1 2 udp 512 ------- 2 1.0 4.1 19 79
+ 2.562248 2 3 udp 512 ------- 2 1.0 4.1 19 79
r 2.5633 2 3 tcp 1040 ------- 1 0.1 5.0 7 53
+ 2.5633 3 5 tcp 1040 ------- 1 0.1 5.0 7 53
- 2.5633 3 5 tcp 1040 ------- 1 0.1 5.0 7 53
+ 2.565539 1 2 udp 512 ------- 2 1.0 4.1 23 90
- 2.565539 1 2 udp 512 ------- 2 1.0 4.1 23 90
- 2.56634 2 3 udp 512 ------- 2 1.0 4.1 17 74
r 2.570789 1 2 udp 512 ------- 2 1.1 5.1 15 81
+ 2.570789 2 3 udp 512 ------- 2 1.1 5.1 15 81
+ 2.576988 1 2 udp 512 ------- 2 1.1 5.1 20 91
- 2.576988 1 2 udp 512 ------- 2 1.1 5.1 20 91
+ 2.579673 1 2 udp 512 ------- 2 1.0 4.1 24 92
r 2.58378 2 3 udp 512 ------- 2 1.0 4.1 9 58
+ 2.58378 3 4 udp 512 ------- 2 1.0 4.1 9 58
- 2.58378 3 4 udp 512 ------- 2 1.0 4.1 9 58
- 2.58518 1 2 udp 512 ------- 2 1.0 4.1 24 92
- 2.58682 2 3 udp 512 ------- 2 1.1 5.1 13 75
r 2.60058 3 5 udp 512 ------- 2 1.1 5.1 4 44
r 2.600955 1 2 udp 512 ------- 2 1.1 5.1 16 82
+ 2.600955 2 3 udp 512 ------- 2 1.1 5.1 16 82
r 2.60122 3 4 tcp 1040 ------- 1 0.0 4.0 11 41
+ 2.60122 4 3 ack 40 ------- 1 4.0 0.0 9 93
- 2.60122 4 3 ack 40 ------- 1 4.0 0.0 9 93
r 2.60426 2 3 udp 512 ------- 2 1.0 4.1 11 61
+ 2.60426 3 4 udp 512 ------- 2 1.0 4.1 11 61
- 2.60426 3 4 udp 512 ------- 2 1.0 4.1 11 61
- 2.6073 2 3 udp 512 ------- 2 1.0 4.1 18 77
r 2.609147 1 2 udp 512 ------- 2 1.0 4.1 20 83
+ 2.609147 2 3 udp 512 ------- 2 1.0 4.1 20 83
+ 2.613538 1 2 udp 512 ------- 2 1.1 5.1 21 94
- 2.613538 1 2 udp 512 ------- 2 1.1 5.1 21 94
r 2.617339 1 2 udp 512 ------- 2 1.0 4.1 21 84
+ 2.617339 2 3 udp 512 ------- 2 1.0 4.1 21 84
d 2.617339 2 3 udp 512 ------- 2 1.0 4.1 21 84
r 2.61818 3 2 ack 40 ------- 1 4.0 0.0 7 78
+ 2.61818 2 0 ack 40 ------- 1 4.0 0.0 7 78
- 2.61818 2 0 ack 40 ------- 1 4.0 0.0 7 78
r 2.62474 2 3 udp 512 ------- 2 1.0 4.1 12 65
+ 2.62474 3 4 udp 512 ------- 2 1.0 4.1 12 65
- 2.62474 3 4 udp 512 ------- 2 1.0 4.1 12 65
- 2.62778 2 3 udp 512 ------- 2 1.0 4.1 19 79
+ 2.628072 1 2 udp 512 ------- 2 1.1 5.1 22 95
- 2.628072 1 2 udp 512 ------- 2 1.1 5.1 22 95
r 2.631755 1 2 udp 512 ------- 2 1.1 5.1 17 85
+ 2.631755 2 3 udp 512 ------- 2 1.1 5.1 17 85
r 2.64074 4 3 ack 40 ------- 1 4.0 0.0 9 87
+ 2.64074 3 2 ack 40 ------- 1 4.0 0.0 9 87
- 2.64074 3 2 ack 40 ------- 1 4.0 0.0 9 87
r 2.641986 1 2 udp 512 ------- 2 1.0 4.1 22 86
+ 2.641986 2 3 udp 512 ------- 2 1.0 4.1 22 86
d 2.641986 2 3 udp 512 ------- 2 1.0 4.1 22 86
+ 2.647994 1 2 udp 512 ------- 2 1.1 5.1 23 96
- 2.647994 1 2 udp 512 ------- 2 1.1 5.1 23 96
- 2.64826 2 3 udp 512 ------- 2 1.1 5.1 15 81
r 2.653878 1 2 udp 512 ------- 2 1.1 5.1 18 88
+ 2.653878 2 3 udp 512 ------- 2 1.1 5.1 18 88
+ 2.658637 1 2 udp 512 ------- 2 1.1 5.1 24 97
- 2.658637 1 2 udp 512 ------- 2 1.1 5.1 24 97
r 2.65978 3 2 ack 40 ------- 1 4.0 0.0 8 80
+ 2.65978 2 0 ack 40 ------- 1 4.0 0.0 8 80
- 2.65978 2 0 ack 40 ------- 1 4.0 0.0 8 80
r 2.6633 3 4 tcp 1040 ------- 1 0.0 4.0 13 48
+ 2.6633 4 3 ack 40 ------- 1 4.0 0.0 9 98
- 2.6633 4 3 ack 40 ------- 1 4.0 0.0 9 98
r 2.66375 1 2 udp 512 ------- 2 1.1 5.1 19 89
+ 2.66375 2 3 udp 512 ------- 2 1.1 5.1 19 89
d 2.66375 2 3 udp 512 ------- 2 1.1 5.1 19 89
r 2.66634 2 3 tcp 1040 ------- 1 0.1 5.0 13 67
+ 2.66634 3 5 tcp 1040 ------- 1 0.1 5.0 13 67
- 2.66634 3 5 tcp 1040 ------- 1 0.1 5.0 13 67
- 2.66874 2 3 udp 512 ------- 2 1.1 5.1 16 82
+ 2.671937 1 2 udp 512 ------- 2 1.0 4.1 25 99
- 2.671937 1 2 udp 512 ------- 2 1.0 4.1 25 99
r 2.673731 1 2 udp 512 ------- 2 1.0 4.1 23 90
+ 2.673731 2 3 udp 512 ------- 2 1.0 4.1 23 90
+ 2.683097 1 2 udp 512 ------- 2 1.0 4.1 26 100
- 2.683097 1 2 udp 512 ------- 2 1.0 4.1 26 100
r 2.68518 1 2 udp 512 ------- 2 1.1 5.1 20 91
+ 2.68518 2 3 udp 512 ------- 2 1.1 5.1 20 91
d 2.68518 2 3 udp 512 ------- 2 1.1 5.1 20 91
r 2.68682 2 3 udp 512 ------- 2 1.0 4.1 17 74
+ 2.68682 3 4 udp 512 ------- 2 1.0 4.1 17 74
- 2.68682 3 4 udp 512 ------- 2 1.0 4.1 17 74
- 2.68922 2 3 udp 512 ------- 2 1.0 4.1 20 83
r 2.693372 1 2 udp 512 ------- 2 1.0 4.1 24 92
+ 2.693372 2 3 udp 512 ------- 2 1.0 4.1 24 92
+ 2.695534 1 2 udp 512 ------- 2 1.1 5.1 25 101
- 2.695534 1 2 udp 512 ------- 2 1.1 5.1 25 101
+ 2.69837 1 2 udp 512 ------- 2 1.0 4.1 27 102
+ 2.700292 1 2 udp 512 ------- 2 1.0 4.1 28 103
r 2.70282 4 3 ack 40 ------- 1 4.0 0.0 9 93
+ 2.70282 3 2 ack 40 ------- 1 4.0 0.0 9 93
- 2.70282 3 2 ack 40 ------- 1 4.0 0.0 9 93