+ 0.0001 0 1 tcp 40 ------- 1 0.0 3.0 0 0
- 0.0001 0 1 tcp 40 ------- 1 0.0 3.0 0 0
+ 0.016466 0 1 tcp 40 ------- 1 0.1 4.0 0 1
- 0.016466 0 1 tcp 40 ------- 1 0.1 4.0 0 1
r 0.10074 0 1 tcp 40 ------- 1 0.0 3.0 0 0
+ 0.10074 1 2 tcp 40 ------- 1 0.0 3.0 0 0
- 0.10074 1 2 tcp 40 ------- 1 0.0 3.0 0 0
r 0.117106 0 1 tcp 40 ------- 1 0.1 4.0 0 1
+ 0.117106 1 2 tcp 40 ------- 1 0.1 4.0 0 1
- 0.117106 1 2 tcp 40 ------- 1 0.1 4.0 0 1
r 0.20234 1 2 tcp 40 ------- 1 0.0 3.0 0 0
+ 0.20234 2 3 tcp 40 ------- 1 0.0 3.0 0 0
- 0.20234 2 3 tcp 40 ------- 1 0.0 3.0 0 0
r 0.218706 1 2 tcp 40 ------- 1 0.1 4.0 0 1
+ 0.218706 2 4 tcp 40 ------- 1 0.1 4.0 0 1
- 0.218706 2 4 tcp 40 ------- 1 0.1 4.0 0 1
r 0.30394 2 3 tcp 40 ------- 1 0.0 3.0 0 0
+ 0.30394 3 2 ack 40 ------- 1 3.0 0.0 0 2
- 0.30394 3 2 ack 40 ------- 1 3.0 0.0 0 2
r 0.320306 2 4 tcp 40 ------- 1 0.1 4.0 0 1
+ 0.320306 4 2 ack 40 ------- 1 4.0 0.1 0 3
- 0.320306 4 2 ack 40 ------- 1 4.0 0.1 0 3
r 0.40554 3 2 ack 40 ------- 1 3.0 0.0 0 2
+ 0.40554 2 1 ack 40 ------- 1 3.0 0.0 0 2
- 0.40554 2 1 ack 40 ------- 1 3.0 0.0 0 2
r 0.421906 4 2 ack 40 ------- 1 4.0 0.1 0 3
+ 0.421906 2 1 ack 40 ------- 1 4.0 0.1 0 3
- 0.421906 2 1 ack 40 ------- 1 4.0 0.1 0 3
r 0.50714 2 1 ack 40 ------- 1 3.0 0.0 0 2
+ 0.50714 1 0 ack 40 ------- 1 3.0 0.0 0 2
- 0.50714 1 0 ack 40 ------- 1 3.0 0.0 0 2
r 0.523506 2 1 ack 40 ------- 1 4.0 0.1 0 3
+ 0.523506 1 0 ack 40 ------- 1 4.0 0.1 0 3
- 0.523506 1 0 ack 40 ------- 1 4.0 0.1 0 3
r 0.60778 1 0 ack 40 ------- 1 3.0 0.0 0 2
+ 0.60778 0 1 tcp 1040 ------- 1 0.0 3.0 1 4
- 0.60778 0 1 tcp 1040 ------- 1 0.0 3.0 1 4
+ 0.60778 0 1 tcp 1040 ------- 1 0.0 3.0 2 5
r 0.624146 1 0 ack 40 ------- 1 4.0 0.1 0 3
+ 0.624146 0 1 tcp 1040 ------- 1 0.1 4.0 1 6
+ 0.624146 0 1 tcp 1040 ------- 1 0.1 4.0 2 7
- 0.62442 0 1 tcp 1040 ------- 1 0.0 3.0 2 5
- 0.64106 0 1 tcp 1040 ------- 1 0.1 4.0 1 6
- 0.6577 0 1 tcp 1040 ------- 1 0.1 4.0 2 7
r 0.72442 0 1 tcp 1040 ------- 1 0.0 3.0 1 4
+ 0.72442 1 2 tcp 1040 ------- 1 0.0 3.0 1 4
- 0.72442 1 2 tcp 1040 ------- 1 0.0 3.0 1 4
r 0.74106 0 1 tcp 1040 ------- 1 0.0 3.0 2 5
+ 0.74106 1 2 tcp 1040 ------- 1 0.0 3.0 2 5
r 0.7577 0 1 tcp 1040 ------- 1 0.1 4.0 1 6
+ 0.7577 1 2 tcp 1040 ------- 1 0.1 4.0 1 6
- 0.76602 1 2 tcp 1040 ------- 1 0.0 3.0 2 5
r 0.77434 0 1 tcp 1040 ------- 1 0.1 4.0 2 7
+ 0.77434 1 2 tcp 1040 ------- 1 0.1 4.0 2 7
- 0.80762 1 2 tcp 1040 ------- 1 0.1 4.0 1 6
- 0.84922 1 2 tcp 1040 ------- 1 0.1 4.0 2 7
r 0.86602 1 2 tcp 1040 ------- 1 0.0 3.0 1 4
+ 0.86602 2 3 tcp 1040 ------- 1 0.0 3.0 1 4
- 0.86602 2 3 tcp 1040 ------- 1 0.0 3.0 1 4
r 0.90762 1 2 tcp 1040 ------- 1 0.0 3.0 2 5
+ 0.90762 2 3 tcp 1040 ------- 1 0.0 3.0 2 5
- 0.90762 2 3 tcp 1040 ------- 1 0.0 3.0 2 5
r 0.94922 1 2 tcp 1040 ------- 1 0.1 4.0 1 6
+ 0.94922 2 4 tcp 1040 ------- 1 0.1 4.0 1 6
- 0.94922 2 4 tcp 1040 ------- 1 0.1 4.0 1 6
r 0.99082 1 2 tcp 1040 ------- 1 0.1 4.0 2 7
+ 0.99082 2 4 tcp 1040 ------- 1 0.1 4.0 2 7
- 0.99082 2 4 tcp 1040 ------- 1 0.1 4.0 2 7
r 1.00762 2 3 tcp 1040 ------- 1 0.0 3.0 1 4
+ 1.00762 3 2 ack 40 ------- 1 3.0 0.0 1 8
- 1.00762 3 2 ack 40 ------- 1 3.0 0.0 1 8
r 1.04922 2 3 tcp 1040 ------- 1 0.0 3.0 2 5
+ 1.04922 3 2 ack 40 ------- 1 3.0 0.0 2 9
- 1.04922 3 2 ack 40 ------- 1 3.0 0.0 2 9
r 1.09082 2 4 tcp 1040 ------- 1 0.1 4.0 1 6
+ 1.09082 4 2 ack 40 ------- 1 4.0 0.1 1 10
- 1.09082 4 2 ack 40 ------- 1 4.0 0.1 1 10
r 1.10922 3 2 ack 40 ------- 1 3.0 0.0 1 8
+ 1.10922 2 1 ack 40 ------- 1 3.0 0.0 1 8
- 1.10922 2 1 ack 40 ------- 1 3.0 0.0 1 8
r 1.13242 2 4 tcp 1040 ------- 1 0.1 4.0 2 7
+ 1.13242 4 2 ack 40 ------- 1 4.0 0.1 2 11
- 1.13242 4 2 ack 40 ------- 1 4.0 0.1 2 11
r 1.15082 3 2 ack 40 ------- 1 3.0 0.0 2 9
+ 1.15082 2 1 ack 40 ------- 1 3.0 0.0 2 9
- 1.15082 2 1 ack 40 ------- 1 3.0 0.0 2 9
r 1.19242 4 2 ack 40 ------- 1 4.0 0.1 1 10
+ 1.19242 2 1 ack 40 ------- 1 4.0 0.1 1 10
- 1.19242 2 1 ack 40 ------- 1 4.0 0.1 1 10
r 1.21082 2 1 ack 40 ------- 1 3.0 0.0 1 8
+ 1.21082 1 0 ack 40 ------- 1 3.0 0.0 1 8
- 1.21082 1 0 ack 40 ------- 1 3.0 0.0 1 8
r 1.23402 4 2 ack 40 ------- 1 4.0 0.1 2 11
+ 1.23402 2 1 ack 40 ------- 1 4.0 0.1 2 11
- 1.23402 2 1 ack 40 ------- 1 4.0 0.1 2 11
r 1.25242 2 1 ack 40 ------- 1 3.0 0.0 2 9
+ 1.25242 1 0 ack 40 ------- 1 3.0 0.0 2 9
- 1.25242 1 0 ack 40 ------- 1 3.0 0.0 2 9
r 1.29402 2 1 ack 40 ------- 1 4.0 0.1 1 10
+ 1.29402 1 0 ack 40 ------- 1 4.0 0.1 1 10
- 1.29402 1 0 ack 40 ------- 1 4.0 0.1 1 10
r 1.31146 1 0 ack 40 ------- 1 3.0 0.0 1 8
+ 1.31146 0 1 tcp 1040 ------- 1 0.0 3.0 3 12
- 1.31146 0 1 tcp 1040 ------- 1 0.0 3.0 3 12
+ 1.31146 0 1 tcp 1040 ------- 1 0.0 3.0 4 13
- 1.3281 0 1 tcp 1040 ------- 1 0.0 3.0 4 13
r 1.33562 2 1 ack 40 ------- 1 4.0 0.1 2 11
+ 1.33562 1 0 ack 40 ------- 1 4.0 0.1 2 11
- 1.33562 1 0 ack 40 ------- 1 4.0 0.1 2 11
r 1.35306 1 0 ack 40 ------- 1 3.0 0.0 2 9
+ 1.35306 0 1 tcp 1040 ------- 1 0.0 3.0 5 14
- 1.35306 0 1 tcp 1040 ------- 1 0.0 3.0 5 14
+ 1.35306 0 1 tcp 1040 ------- 1 0.0 3.0 6 15
- 1.3697 0 1 tcp 1040 ------- 1 0.0 3.0 6 15
r 1.39466 1 0 ack 40 ------- 1 4.0 0.1 1 10
+ 1.39466 0 1 tcp 1040 ------- 1 0.1 4.0 3 16
- 1.39466 0 1 tcp 1040 ------- 1 0.1 4.0 3 16
+ 1.39466 0 1 tcp 1040 ------- 1 0.1 4.0 4 17
- 1.4113 0 1 tcp 1040 ------- 1 0.1 4.0 4 17
r 1.4281 0 1 tcp 1040 ------- 1 0.0 3.0 3 12
+ 1.4281 1 2 tcp 1040 ------- 1 0.0 3.0 3 12
- 1.4281 1 2 tcp 1040 ------- 1 0.0 3.0 3 12
r 1.43626 1 0 ack 40 ------- 1 4.0 0.1 2 11
+ 1.43626 0 1 tcp 1040 ------- 1 0.1 4.0 5 18
- 1.43626 0 1 tcp 1040 ------- 1 0.1 4.0 5 18
+ 1.43626 0 1 tcp 1040 ------- 1 0.1 4.0 6 19
r 1.44474 0 1 tcp 1040 ------- 1 0.0 3.0 4 13
+ 1.44474 1 2 tcp 1040 ------- 1 0.0 3.0 4 13
- 1.4529 0 1 tcp 1040 ------- 1 0.1 4.0 6 19
r 1.4697 0 1 tcp 1040 ------- 1 0.0 3.0 5 14
+ 1.4697 1 2 tcp 1040 ------- 1 0.0 3.0 5 14
- 1.4697 1 2 tcp 1040 ------- 1 0.0 3.0 4 13
r 1.48634 0 1 tcp 1040 ------- 1 0.0 3.0 6 15
+ 1.48634 1 2 tcp 1040 ------- 1 0.0 3.0 6 15
r 1.5113 0 1 tcp 1040 ------- 1 0.1 4.0 3 16
+ 1.5113 1 2 tcp 1040 ------- 1 0.1 4.0 3 16
- 1.5113 1 2 tcp 1040 ------- 1 0.0 3.0 5 14
r 1.52794 0 1 tcp 1040 ------- 1 0.1 4.0 4 17
+ 1.52794 1 2 tcp 1040 ------- 1 0.1 4.0 4 17
r 1.5529 0 1 tcp 1040 ------- 1 0.1 4.0 5 18
+ 1.5529 1 2 tcp 1040 ------- 1 0.1 4.0 5 18
- 1.5529 1 2 tcp 1040 ------- 1 0.0 3.0 6 15
r 1.56954 0 1 tcp 1040 ------- 1 0.1 4.0 6 19
+ 1.56954 1 2 tcp 1040 ------- 1 0.1 4.0 6 19
r 1.5697 1 2 tcp 1040 ------- 1 0.0 3.0 3 12
+ 1.5697 2 3 tcp 1040 ------- 1 0.0 3.0 3 12
- 1.5697 2 3 tcp 1040 ------- 1 0.0 3.0 3 12
- 1.5945 1 2 tcp 1040 ------- 1 0.1 4.0 3 16
r 1.6113 1 2 tcp 1040 ------- 1 0.0 3.0 4 13
+ 1.6113 2 3 tcp 1040 ------- 1 0.0 3.0 4 13
- 1.6113 2 3 tcp 1040 ------- 1 0.0 3.0 4 13
- 1.6361 1 2 tcp 1040 ------- 1 0.1 4.0 4 17
r 1.6529 1 2 tcp 1040 ------- 1 0.0 3.0 5 14
+ 1.6529 2 3 tcp 1040 ------- 1 0.0 3.0 5 14
- 1.6529 2 3 tcp 1040 ------- 1 0.0 3.0 5 14
- 1.6777 1 2 tcp 1040 ------- 1 0.1 4.0 5 18
r 1.6945 1 2 tcp 1040 ------- 1 0.0 3.0 6 15
+ 1.6945 2 3 tcp 1040 ------- 1 0.0 3.0 6 15
- 1.6945 2 3 tcp 1040 ------- 1 0.0 3.0 6 15
r 1.7113 2 3 tcp 1040 ------- 1 0.0 3.0 3 12
+ 1.7113 3 2 ack 40 ------- 1 3.0 0.0 3 20
- 1.7113 3 2 ack 40 ------- 1 3.0 0.0 3 20
- 1.7193 1 2 tcp 1040 ------- 1 0.1 4.0 6 19
r 1.7361 1 2 tcp 1040 ------- 1 0.1 4.0 3 16
+ 1.7361 2 4 tcp 1040 ------- 1 0.1 4.0 3 16
- 1.7361 2 4 tcp 1040 ------- 1 0.1 4.0 3 16
r 1.7529 2 3 tcp 1040 ------- 1 0.0 3.0 4 13
+ 1.7529 3 2 ack 40 ------- 1 3.0 0.0 4 21
- 1.7529 3 2 ack 40 ------- 1 3.0 0.0 4 21
r 1.7777 1 2 tcp 1040 ------- 1 0.1 4.0 4 17
+ 1.7777 2 4 tcp 1040 ------- 1 0.1 4.0 4 17
- 1.7777 2 4 tcp 1040 ------- 1 0.1 4.0 4 17
r 1.7945 2 3 tcp 1040 ------- 1 0.0 3.0 5 14
+ 1.7945 3 2 ack 40 ------- 1 3.0 0.0 5 22
- 1.7945 3 2 ack 40 ------- 1 3.0 0.0 5 22
r 1.8129 3 2 ack 40 ------- 1 3.0 0.0 3 20
+ 1.8129 2 1 ack 40 ------- 1 3.0 0.0 3 20
- 1.8129 2 1 ack 40 ------- 1 3.0 0.0 3 20
r 1.8193 1 2 tcp 1040 ------- 1 0.1 4.0 5 18
+ 1.8193 2 4 tcp 1040 ------- 1 0.1 4.0 5 18
- 1.8193 2 4 tcp 1040 ------- 1 0.1 4.0 5 18
r 1.8361 2 3 tcp 1040 ------- 1 0.0 3.0 6 15
+ 1.8361 3 2 ack 40 ------- 1 3.0 0.0 6 23
- 1.8361 3 2 ack 40 ------- 1 3.0 0.0 6 23
r 1.8545 3 2 ack 40 ------- 1 3.0 0.0 4 21
+ 1.8545 2 1 ack 40 ------- 1 3.0 0.0 4 21
- 1.8545 2 1 ack 40 ------- 1 3.0 0.0 4 21
r 1.8609 1 2 tcp 1040 ------- 1 0.1 4.0 6 19
+ 1.8609 2 4 tcp 1040 ------- 1 0.1 4.0 6 19
- 1.8609 2 4 tcp 1040 ------- 1 0.1 4.0 6 19
r 1.8777 2 4 tcp 1040 ------- 1 0.1 4.0 3 16
+ 1.8777 4 2 ack 40 ------- 1 4.0 0.1 3 24
- 1.8777 4 2 ack 40 ------- 1 4.0 0.1 3 24
r 1.8961 3 2 ack 40 ------- 1 3.0 0.0 5 22
+ 1.8961 2 1 ack 40 ------- 1 3.0 0.0 5 22
- 1.8961 2 1 ack 40 ------- 1 3.0 0.0 5 22
r 1.9145 2 1 ack 40 ------- 1 3.0 0.0 3 20
+ 1.9145 1 0 ack 40 ------- 1 3.0 0.0 3 20
- 1.9145 1 0 ack 40 ------- 1 3.0 0.0 3 20
r 1.9193 2 4 tcp 1040 ------- 1 0.1 4.0 4 17
+ 1.9193 4 2 ack 40 ------- 1 4.0 0.1 4 25
- 1.9193 4 2 ack 40 ------- 1 4.0 0.1 4 25
r 1.9377 3 2 ack 40 ------- 1 3.0 0.0 6 23
+ 1.9377 2 1 ack 40 ------- 1 3.0 0.0 6 23
- 1.9377 2 1 ack 40 ------- 1 3.0 0.0 6 23
r 1.9561 2 1 ack 40 ------- 1 3.0 0.0 4 21
+ 1.9561 1 0 ack 40 ------- 1 3.0 0.0 4 21
- 1.9561 1 0 ack 40 ------- 1 3.0 0.0 4 21
r 1.9609 2 4 tcp 1040 ------- 1 0.1 4.0 5 18
+ 1.9609 4 2 ack 40 ------- 1 4.0 0.1 5 26
- 1.9609 4 2 ack 40 ------- 1 4.0 0.1 5 26
r 1.9793 4 2 ack 40 ------- 1 4.0 0.1 3 24
+ 1.9793 2 1 ack 40 ------- 1 4.0 0.1 3 24
- 1.9793 2 1 ack 40 ------- 1 4.0 0.1 3 24
r 1.9977 2 1 ack 40 ------- 1 3.0 0.0 5 22
+ 1.9977 1 0 ack 40 ------- 1 3.0 0.0 5 22
- 1.9977 1 0 ack 40 ------- 1 3.0 0.0 5 22
r 2.0025 2 4 tcp 1040 ------- 1 0.1 4.0 6 19
+ 2.0025 4 2 ack 40 ------- 1 4.0 0.1 6 27
- 2.0025 4 2 ack 40 ------- 1 4.0 0.1 6 27
r 2.01514 1 0 ack 40 ------- 1 3.0 0.0 3 20
+ 2.01514 0 1 tcp 1040 ------- 1 0.0 3.0 7 28
- 2.01514 0 1 tcp 1040 ------- 1 0.0 3.0 7 28
+ 2.01514 0 1 tcp 1040 ------- 1 0.0 3.0 8 29
r 2.0209 4 2 ack 40 ------- 1 4.0 0.1 4 25
+ 2.0209 2 1 ack 40 ------- 1 4.0 0.1 4 25
- 2.0209 2 1 ack 40 ------- 1 4.0 0.1 4 25
- 2.03178 0 1 tcp 1040 ------- 1 0.0 3.0 8 29
r 2.0393 2 1 ack 40 ------- 1 3.0 0.0 6 23
+ 2.0393 1 0 ack 40 ------- 1 3.0 0.0 6 23
- 2.0393 1 0 ack 40 ------- 1 3.0 0.0 6 23
r 2.05674 1 0 ack 40 ------- 1 3.0 0.0 4 21
+ 2.05674 0 1 tcp 1040 ------- 1 0.0 3.0 9 30
- 2.05674 0 1 tcp 1040 ------- 1 0.0 3.0 9 30
+ 2.05674 0 1 tcp 1040 ------- 1 0.0 3.0 10 31
r 2.0625 4 2 ack 40 ------- 1 4.0 0.1 5 26
+ 2.0625 2 1 ack 40 ------- 1 4.0 0.1 5 26
- 2.0625 2 1 ack 40 ------- 1 4.0 0.1 5 26
- 2.07338 0 1 tcp 1040 ------- 1 0.0 3.0 10 31
r 2.0809 2 1 ack 40 ------- 1 4.0 0.1 3 24
+ 2.0809 1 0 ack 40 ------- 1 4.0 0.1 3 24
- 2.0809 1 0 ack 40 ------- 1 4.0 0.1 3 24
r 2.09834 1 0 ack 40 ------- 1 3.0 0.0 5 22
+ 2.09834 0 1 tcp 1040 ------- 1 0.0 3.0 11 32
- 2.09834 0 1 tcp 1040 ------- 1 0.0 3.0 11 32
+ 2.09834 0 1 tcp 1040 ------- 1 0.0 3.0 12 33
r 2.1041 4 2 ack 40 ------- 1 4.0 0.1 6 27
+ 2.1041 2 1 ack 40 ------- 1 4.0 0.1 6 27
- 2.1041 2 1 ack 40 ------- 1 4.0 0.1 6 27
- 2.11498 0 1 tcp 1040 ------- 1 0.0 3.0 12 33
r 2.1225 2 1 ack 40 ------- 1 4.0 0.1 4 25
+ 2.1225 1 0 ack 40 ------- 1 4.0 0.1 4 25
- 2.1225 1 0 ack 40 ------- 1 4.0 0.1 4 25
r 2.13178 0 1 tcp 1040 ------- 1 0.0 3.0 7 28
+ 2.13178 1 2 tcp 1040 ------- 1 0.0 3.0 7 28
- 2.13178 1 2 tcp 1040 ------- 1 0.0 3.0 7 28
r 2.13994 1 0 ack 40 ------- 1 3.0 0.0 6 23
+ 2.13994 0 1 tcp 1040 ------- 1 0.0 3.0 13 34
- 2.13994 0 1 tcp 1040 ------- 1 0.0 3.0 13 34
+ 2.13994 0 1 tcp 1040 ------- 1 0.0 3.0 14 35
r 2.14842 0 1 tcp 1040 ------- 1 0.0 3.0 8 29
+ 2.14842 1 2 tcp 1040 ------- 1 0.0 3.0 8 29
- 2.15658 0 1 tcp 1040 ------- 1 0.0 3.0 14 35
r 2.1641 2 1 ack 40 ------- 1 4.0 0.1 5 26
+ 2.1641 1 0 ack 40 ------- 1 4.0 0.1 5 26
- 2.1641 1 0 ack 40 ------- 1 4.0 0.1 5 26
r 2.17338 0 1 tcp 1040 ------- 1 0.0 3.0 9 30
+ 2.17338 1 2 tcp 1040 ------- 1 0.0 3.0 9 30
- 2.17338 1 2 tcp 1040 ------- 1 0.0 3.0 8 29
r 2.18154 1 0 ack 40 ------- 1 4.0 0.1 3 24
+ 2.18154 0 1 tcp 1040 ------- 1 0.1 4.0 7 36
- 2.18154 0 1 tcp 1040 ------- 1 0.1 4.0 7 36
+ 2.18154 0 1 tcp 1040 ------- 1 0.1 4.0 8 37
r 2.19002 0 1 tcp 1040 ------- 1 0.0 3.0 10 31
+ 2.19002 1 2 tcp 1040 ------- 1 0.0 3.0 10 31
- 2.19818 0 1 tcp 1040 ------- 1 0.1 4.0 8 37
r 2.2057 2 1 ack 40 ------- 1 4.0 0.1 6 27
+ 2.2057 1 0 ack 40 ------- 1 4.0 0.1 6 27
- 2.2057 1 0 ack 40 ------- 1 4.0 0.1 6 27
- 2.21498 1 2 tcp 1040 ------- 1 0.0 3.0 9 30
r 2.21498 0 1 tcp 1040 ------- 1 0.0 3.0 11 32
+ 2.21498 1 2 tcp 1040 ------- 1 0.0 3.0 11 32
r 2.22314 1 0 ack 40 ------- 1 4.0 0.1 4 25
+ 2.22314 0 1 tcp 1040 ------- 1 0.1 4.0 9 38
- 2.22314 0 1 tcp 1040 ------- 1 0.1 4.0 9 38
+ 2.22314 0 1 tcp 1040 ------- 1 0.1 4.0 10 39
r 2.23162 0 1 tcp 1040 ------- 1 0.0 3.0 12 33
+ 2.23162 1 2 tcp 1040 ------- 1 0.0 3.0 12 33
- 2.23978 0 1 tcp 1040 ------- 1 0.1 4.0 10 39
- 2.25658 1 2 tcp 1040 ------- 1 0.0 3.0 10 31
r 2.25658 0 1 tcp 1040 ------- 1 0.0 3.0 13 34
+ 2.25658 1 2 tcp 1040 ------- 1 0.0 3.0 13 34
r 2.26474 1 0 ack 40 ------- 1 4.0 0.1 5 26
+ 2.26474 0 1 tcp 1040 ------- 1 0.1 4.0 11 40
- 2.26474 0 1 tcp 1040 ------- 1 0.1 4.0 11 40
+ 2.26474 0 1 tcp 1040 ------- 1 0.1 4.0 12 41
r 2.27322 0 1 tcp 1040 ------- 1 0.0 3.0 14 35
+ 2.27322 1 2 tcp 1040 ------- 1 0.0 3.0 14 35
r 2.27338 1 2 tcp 1040 ------- 1 0.0 3.0 7 28
+ 2.27338 2 3 tcp 1040 ------- 1 0.0 3.0 7 28
- 2.27338 2 3 tcp 1040 ------- 1 0.0 3.0 7 28
- 2.28138 0 1 tcp 1040 ------- 1 0.1 4.0 12 41
- 2.29818 1 2 tcp 1040 ------- 1 0.0 3.0 11 32
r 2.29818 0 1 tcp 1040 ------- 1 0.1 4.0 7 36
+ 2.29818 1 2 tcp 1040 ------- 1 0.1 4.0 7 36
r 2.30634 1 0 ack 40 ------- 1 4.0 0.1 6 27
+ 2.30634 0 1 tcp 1040 ------- 1 0.1 4.0 13 42
- 2.30634 0 1 tcp 1040 ------- 1 0.1 4.0 13 42
+ 2.30634 0 1 tcp 1040 ------- 1 0.1 4.0 14 43
r 2.31482 0 1 tcp 1040 ------- 1 0.1 4.0 8 37
+ 2.31482 1 2 tcp 1040 ------- 1 0.1 4.0 8 37
r 2.31498 1 2 tcp 1040 ------- 1 0.0 3.0 8 29
+ 2.31498 2 3 tcp 1040 ------- 1 0.0 3.0 8 29
- 2.31498 2 3 tcp 1040 ------- 1 0.0 3.0 8 29
- 2.32298 0 1 tcp 1040 ------- 1 0.1 4.0 14 43
- 2.33978 1 2 tcp 1040 ------- 1 0.0 3.0 12 33
r 2.33978 0 1 tcp 1040 ------- 1 0.1 4.0 9 38
+ 2.33978 1 2 tcp 1040 ------- 1 0.1 4.0 9 38
r 2.35642 0 1 tcp 1040 ------- 1 0.1 4.0 10 39
+ 2.35642 1 2 tcp 1040 ------- 1 0.1 4.0 10 39
r 2.35658 1 2 tcp 1040 ------- 1 0.0 3.0 9 30
+ 2.35658 2 3 tcp 1040 ------- 1 0.0 3.0 9 30
- 2.35658 2 3 tcp 1040 ------- 1 0.0 3.0 9 30
- 2.38138 1 2 tcp 1040 ------- 1 0.0 3.0 13 34
r 2.38138 0 1 tcp 1040 ------- 1 0.1 4.0 11 40
+ 2.38138 1 2 tcp 1040 ------- 1 0.1 4.0 11 40
r 2.39802 0 1 tcp 1040 ------- 1 0.1 4.0 12 41
+ 2.39802 1 2 tcp 1040 ------- 1 0.1 4.0 12 41
r 2.39818 1 2 tcp 1040 ------- 1 0.0 3.0 10 31
+ 2.39818 2 3 tcp 1040 ------- 1 0.0 3.0 10 31
- 2.39818 2 3 tcp 1040 ------- 1 0.0 3.0 10 31
r 2.41498 2 3 tcp 1040 ------- 1 0.0 3.0 7 28
+ 2.41498 3 2 ack 40 ------- 1 3.0 0.0 7 44
- 2.41498 3 2 ack 40 ------- 1 3.0 0.0 7 44
- 2.42298 1 2 tcp 1040 ------- 1 0.0 3.0 14 35
r 2.42298 0 1 tcp 1040 ------- 1 0.1 4.0 13 42
+ 2.42298 1 2 tcp 1040 ------- 1 0.1 4.0 13 42
r 2.43962 0 1 tcp 1040 ------- 1 0.1 4.0 14 43
+ 2.43962 1 2 tcp 1040 ------- 1 0.1 4.0 14 43
r 2.43978 1 2 tcp 1040 ------- 1 0.0 3.0 11 32
+ 2.43978 2 3 tcp 1040 ------- 1 0.0 3.0 11 32
- 2.43978 2 3 tcp 1040 ------- 1 0.0 3.0 11 32
r 2.45658 2 3 tcp 1040 ------- 1 0.0 3.0 8 29
+ 2.45658 3 2 ack 40 ------- 1 3.0 0.0 8 45
- 2.45658 3 2 ack 40 ------- 1 3.0 0.0 8 45
- 2.46458 1 2 tcp 1040 ------- 1 0.1 4.0 7 36
r 2.48138 1 2 tcp 1040 ------- 1 0.0 3.0 12 33
+ 2.48138 2 3 tcp 1040 ------- 1 0.0 3.0 12 33
- 2.48138 2 3 tcp 1040 ------- 1 0.0 3.0 12 33
r 2.49818 2 3 tcp 1040 ------- 1 0.0 3.0 9 30
+ 2.49818 3 2 ack 40 ------- 1 3.0 0.0 9 46
- 2.49818 3 2 ack 40 ------- 1 3.0 0.0 9 46
- 2.50618 1 2 tcp 1040 ------- 1 0.1 4.0 8 37
r 2.51658 3 2 ack 40 ------- 1 3.0 0.0 7 44
+ 2.51658 2 1 ack 40 ------- 1 3.0 0.0 7 44
- 2.51658 2 1 ack 40 ------- 1 3.0 0.0 7 44
r 2.52298 1 2 tcp 1040 ------- 1 0.0 3.0 13 34
+ 2.52298 2 3 tcp 1040 ------- 1 0.0 3.0 13 34
- 2.52298 2 3 tcp 1040 ------- 1 0.0 3.0 13 34
r 2.53978 2 3 tcp 1040 ------- 1 0.0 3.0 10 31
+ 2.53978 3 2 ack 40 ------- 1 3.0 0.0 10 47
- 2.53978 3 2 ack 40 ------- 1 3.0 0.0 10 47
- 2.54778 1 2 tcp 1040 ------- 1 0.1 4.0 9 38
r 2.55818 3 2 ack 40 ------- 1 3.0 0.0 8 45
+ 2.55818 2 1 ack 40 ------- 1 3.0 0.0 8 45
- 2.55818 2 1 ack 40 ------- 1 3.0 0.0 8 45
r 2.56458 1 2 tcp 1040 ------- 1 0.0 3.0 14 35
+ 2.56458 2 3 tcp 1040 ------- 1 0.0 3.0 14 35
- 2.56458 2 3 tcp 1040 ------- 1 0.0 3.0 14 35
r 2.58138 2 3 tcp 1040 ------- 1 0.0 3.0 11 32
+ 2.58138 3 2 ack 40 ------- 1 3.0 0.0 11 48
- 2.58138 3 2 ack 40 ------- 1 3.0 0.0 11 48
- 2.58938 1 2 tcp 1040 ------- 1 0.1 4.0 10 39
r 2.59978 3 2 ack 40 ------- 1 3.0 0.0 9 46
+ 2.59978 2 1 ack 40 ------- 1 3.0 0.0 9 46
- 2.59978 2 1 ack 40 ------- 1 3.0 0.0 9 46
r 2.60618 1 2 tcp 1040 ------- 1 0.1 4.0 7 36
+ 2.60618 2 4 tcp 1040 ------- 1 0.1 4.0 7 36
- 2.60618 2 4 tcp 1040 ------- 1 0.1 4.0 7 36
r 2.61818 2 1 ack 40 ------- 1 3.0 0.0 7 44
+ 2.61818 1 0 ack 40 ------- 1 3.0 0.0 7 44
- 2.61818 1 0 ack 40 ------- 1 3.0 0.0 7 44
r 2.62298 2 3 tcp 1040 ------- 1 0.0 3.0 12 33
+ 2.62298 3 2 ack 40 ------- 1 3.0 0.0 12 49
- 2.62298 3 2 ack 40 ------- 1 3.0 0.0 12 49
- 2.63098 1 2 tcp 1040 ------- 1 0.1 4.0 11 40
r 2.64138 3 2 ack 40 ------- 1 3.0 0.0 10 47
+ 2.64138 2 1 ack 40 ------- 1 3.0 0.0 10 47
- 2.64138 2 1 ack 40 ------- 1 3.0 0.0 10 47
r 2.64778 1 2 tcp 1040 ------- 1 0.1 4.0 8 37
+ 2.64778 2 4 tcp 1040 ------- 1 0.1 4.0 8 37
- 2.64778 2 4 tcp 1040 ------- 1 0.1 4.0 8 37
r 2.65978 2 1 ack 40 ------- 1 3.0 0.0 8 45
+ 2.65978 1 0 ack 40 ------- 1 3.0 0.0 8 45
- 2.65978 1 0 ack 40 ------- 1 3.0 0.0 8 45
r 2.66458 2 3 tcp 1040 ------- 1 0.0 3.0 13 34
+ 2.66458 3 2 ack 40 ------- 1 3.0 0.0 13 50
- 2.66458 3 2 ack 40 ------- 1 3.0 0.0 13 50
- 2.67258 1 2 tcp 1040 ------- 1 0.1 4.0 12 41
r 2.68298 3 2 ack 40 ------- 1 3.0 0.0 11 48
+ 2.68298 2 1 ack 40 ------- 1 3.0 0.0 11 48
- 2.68298 2 1 ack 40 ------- 1 3.0 0.0 11 48
r 2.68938 1 2 tcp 1040 ------- 1 0.1 4.0 9 38
+ 2.68938 2 4 tcp 1040 ------- 1 0.1 4.0 9 38
- 2.68938 2 4 tcp 1040 ------- 1 0.1 4.0 9 38
r 2.70138 2 1 ack 40 ------- 1 3.0 0.0 9 46
+ 2.70138 1 0 ack 40 ------- 1 3.0 0.0 9 46
- 2.70138 1 0 ack 40 ------- 1 3.0 0.0 9 46
r 2.70618 2 3 tcp 1040 ------- 1 0.0 3.0 14 35
+ 2.70618 3 2 ack 40 ------- 1 3.0 0.0 14 51
- 2.70618 3 2 ack 40 ------- 1 3.0 0.0 14 51
- 2.71418 1 2 tcp 1040 ------- 1 0.1 4.0 13 42
r 2.71882 1 0 ack 40 ------- 1 3.0 0.0 7 44
+ 2.71882 0 1 tcp 1040 ------- 1 0.0 3.0 15 52
- 2.71882 0 1 tcp 1040 ------- 1 0.0 3.0 15 52
+ 2.71882 0 1 tcp 1040 ------- 1 0.0 3.0 16 53
r 2.72458 3 2 ack 40 ------- 1 3.0 0.0 12 49
+ 2.72458 2 1 ack 40 ------- 1 3.0 0.0 12 49
- 2.72458 2 1 ack 40 ------- 1 3.0 0.0 12 49
r 2.73098 1 2 tcp 1040 ------- 1 0.1 4.0 10 39
+ 2.73098 2 4 tcp 1040 ------- 1 0.1 4.0 10 39
- 2.73098 2 4 tcp 1040 ------- 1 0.1 4.0 10 39
- 2.73546 0 1 tcp 1040 ------- 1 0.0 3.0 16 53
r 2.74298 2 1 ack 40 ------- 1 3.0 0.0 10 47
+ 2.74298 1 0 ack 40 ------- 1 3.0 0.0 10 47
- 2.74298 1 0 ack 40 ------- 1 3.0 0.0 10 47
r 2.74778 2 4 tcp 1040 ------- 1 0.1 4.0 7 36
+ 2.74778 4 2 ack 40 ------- 1 4.0 0.1 7 54
- 2.74778 4 2 ack 40 ------- 1 4.0 0.1 7 54
- 2.75578 1 2 tcp 1040 ------- 1 0.1 4.0 14 43
r 2.76042 1 0 ack 40 ------- 1 3.0 0.0 8 45
+ 2.76042 0 1 tcp 1040 ------- 1 0.0 3.0 17 55
- 2.76042 0 1 tcp 1040 ------- 1 0.0 3.0 17 55
+ 2.76042 0 1 tcp 1040 ------- 1 0.0 3.0 18 56
r 2.76618 3 2 ack 40 ------- 1 3.0 0.0 13 50
+ 2.76618 2 1 ack 40 ------- 1 3.0 0.0 13 50
- 2.76618 2 1 ack 40 ------- 1 3.0 0.0 13 50
r 2.77258 1 2 tcp 1040 ------- 1 0.1 4.0 11 40
+ 2.77258 2 4 tcp 1040 ------- 1 0.1 4.0 11 40
- 2.77258 2 4 tcp 1040 ------- 1 0.1 4.0 11 40
- 2.77706 0 1 tcp 1040 ------- 1 0.0 3.0 18 56
r 2.78458 2 1 ack 40 ------- 1 3.0 0.0 11 48
+ 2.78458 1 0 ack 40 ------- 1 3.0 0.0 11 48
- 2.78458 1 0 ack 40 ------- 1 3.0 0.0 11 48
r 2.78938 2 4 tcp 1040 ------- 1 0.1 4.0 8 37
+ 2.78938 4 2 ack 40 ------- 1 4.0 0.1 8 57
- 2.78938 4 2 ack 40 ------- 1 4.0 0.1 8 57
r 2.80202 1 0 ack 40 ------- 1 3.0 0.0 9 46
+ 2.80202 0 1 tcp 1040 ------- 1 0.0 3.0 19 58
- 2.80202 0 1 tcp 1040 ------- 1 0.0 3.0 19 58
+ 2.80202 0 1 tcp 1040 ------- 1 0.0 3.0 20 59
r 2.80778 3 2 ack 40 ------- 1 3.0 0.0 14 51
+ 2.80778 2 1 ack 40 ------- 1 3.0 0.0 14 51
- 2.80778 2 1 ack 40 ------- 1 3.0 0.0 14 51
r 2.81418 1 2 tcp 1040 ------- 1 0.1 4.0 12 41
+ 2.81418 2 4 tcp 1040 ------- 1 0.1 4.0 12 41
- 2.81418 2 4 tcp 1040 ------- 1 0.1 4.0 12 41
- 2.81866 0 1 tcp 1040 ------- 1 0.0 3.0 20 59
r 2.82618 2 1 ack 40 ------- 1 3.0 0.0 12 49
+ 2.82618 1 0 ack 40 ------- 1 3.0 0.0 12 49
- 2.82618 1 0 ack 40 ------- 1 3.0 0.0 12 49
r 2.83098 2 4 tcp 1040 ------- 1 0.1 4.0 9 38
+ 2.83098 4 2 ack 40 ------- 1 4.0 0.1 9 60
- 2.83098 4 2 ack 40 ------- 1 4.0 0.1 9 60
r 2.83546 0 1 tcp 1040 ------- 1 0.0 3.0 15 52
+ 2.83546 1 2 tcp 1040 ------- 1 0.0 3.0 15 52
- 2.83546 1 2 tcp 1040 ------- 1 0.0 3.0 15 52
r 2.84362 1 0 ack 40 ------- 1 3.0 0.0 10 47
+ 2.84362 0 1 tcp 1040 ------- 1 0.0 3.0 21 61
- 2.84362 0 1 tcp 1040 ------- 1 0.0 3.0 21 61
+ 2.84362 0 1 tcp 1040 ------- 1 0.0 3.0 22 62
r 2.84938 4 2 ack 40 ------- 1 4.0 0.1 7 54
+ 2.84938 2 1 ack 40 ------- 1 4.0 0.1 7 54
- 2.84938 2 1 ack 40 ------- 1 4.0 0.1 7 54
r 2.8521 0 1 tcp 1040 ------- 1 0.0 3.0 16 53
+ 2.8521 1 2 tcp 1040 ------- 1 0.0 3.0 16 53
r 2.85578 1 2 tcp 1040 ------- 1 0.1 4.0 13 42
+ 2.85578 2 4 tcp 1040 ------- 1 0.1 4.0 13 42
- 2.85578 2 4 tcp 1040 ------- 1 0.1 4.0 13 42
- 2.86026 0 1 tcp 1040 ------- 1 0.0 3.0 22 62
r 2.86778 2 1 ack 40 ------- 1 3.0 0.0 13 50
+ 2.86778 1 0 ack 40 ------- 1 3.0 0.0 13 50
- 2.86778 1 0 ack 40 ------- 1 3.0 0.0 13 50
r 2.87258 2 4 tcp 1040 ------- 1 0.1 4.0 10 39
+ 2.87258 4 2 ack 40 ------- 1 4.0 0.1 10 63
- 2.87258 4 2 ack 40 ------- 1 4.0 0.1 10 63
r 2.87706 0 1 tcp 1040 ------- 1 0.0 3.0 17 55
+ 2.87706 1 2 tcp 1040 ------- 1 0.0 3.0 17 55
- 2.87706 1 2 tcp 1040 ------- 1 0.0 3.0 16 53
r 2.88522 1 0 ack 40 ------- 1 3.0 0.0 11 48
+ 2.88522 0 1 tcp 1040 ------- 1 0.0 3.0 23 64
- 2.88522 0 1 tcp 1040 ------- 1 0.0 3.0 23 64
+ 2.88522 0 1 tcp 1040 ------- 1 0.0 3.0 24 65
r 2.89098 4 2 ack 40 ------- 1 4.0 0.1 8 57
+ 2.89098 2 1 ack 40 ------- 1 4.0 0.1 8 57
- 2.89098 2 1 ack 40 ------- 1 4.0 0.1 8 57
r 2.8937 0 1 tcp 1040 ------- 1 0.0 3.0 18 56
+ 2.8937 1 2 tcp 1040 ------- 1 0.0 3.0 18 56
r 2.89738 1 2 tcp 1040 ------- 1 0.1 4.0 14 43
+ 2.89738 2 4 tcp 1040 ------- 1 0.1 4.0 14 43
- 2.89738 2 4 tcp 1040 ------- 1 0.1 4.0 14 43
- 2.90186 0 1 tcp 1040 ------- 1 0.0 3.0 24 65
r 2.90938 2 1 ack 40 ------- 1 3.0 0.0 14 51
+ 2.90938 1 0 ack 40 ------- 1 3.0 0.0 14 51
- 2.90938 1 0 ack 40 ------- 1 3.0 0.0 14 51
r 2.91418 2 4 tcp 1040 ------- 1 0.1 4.0 11 40
+ 2.91418 4 2 ack 40 ------- 1 4.0 0.1 11 66
- 2.91418 4 2 ack 40 ------- 1 4.0 0.1 11 66
r 2.91866 0 1 tcp 1040 ------- 1 0.0 3.0 19 58
+ 2.91866 1 2 tcp 1040 ------- 1 0.0 3.0 19 58
- 2.91866 1 2 tcp 1040 ------- 1 0.0 3.0 17 55
r 2.92682 1 0 ack 40 ------- 1 3.0 0.0 12 49
+ 2.92682 0 1 tcp 1040 ------- 1 0.0 3.0 25 67
- 2.92682 0 1 tcp 1040 ------- 1 0.0 3.0 25 67
+ 2.92682 0 1 tcp 1040 ------- 1 0.0 3.0 26 68
r 2.93258 4 2 ack 40 ------- 1 4.0 0.1 9 60
+ 2.93258 2 1 ack 40 ------- 1 4.0 0.1 9 60
- 2.93258 2 1 ack 40 ------- 1 4.0 0.1 9 60
r 2.9353 0 1 tcp 1040 ------- 1 0.0 3.0 20 59
+ 2.9353 1 2 tcp 1040 ------- 1 0.0 3.0 20 59
- 2.94346 0 1 tcp 1040 ------- 1 0.0 3.0 26 68
r 2.95098 2 1 ack 40 ------- 1 4.0 0.1 7 54
+ 2.95098 1 0 ack 40 ------- 1 4.0 0.1 7 54
- 2.95098 1 0 ack 40 ------- 1 4.0 0.1 7 54
r 2.95578 2 4 tcp 1040 ------- 1 0.1 4.0 12 41
+ 2.95578 4 2 ack 40 ------- 1 4.0 0.1 12 69
- 2.95578 4 2 ack 40 ------- 1 4.0 0.1 12 69
r 2.96026 0 1 tcp 1040 ------- 1 0.0 3.0 21 61
+ 2.96026 1 2 tcp 1040 ------- 1 0.0 3.0 21 61
- 2.96026 1 2 tcp 1040 ------- 1 0.0 3.0 18 56
r 2.96842 1 0 ack 40 ------- 1 3.0 0.0 13 50
+ 2.96842 0 1 tcp 1040 ------- 1 0.0 3.0 27 70
- 2.96842 0 1 tcp 1040 ------- 1 0.0 3.0 27 70
+ 2.96842 0 1 tcp 1040 ------- 1 0.0 3.0 28 71
r 2.97418 4 2 ack 40 ------- 1 4.0 0.1 10 63
+ 2.97418 2 1 ack 40 ------- 1 4.0 0.1 10 63
- 2.97418 2 1 ack 40 ------- 1 4.0 0.1 10 63
r 2.9769 0 1 tcp 1040 ------- 1 0.0 3.0 22 62
+ 2.9769 1 2 tcp 1040 ------- 1 0.0 3.0 22 62
r 2.97706 1 2 tcp 1040 ------- 1 0.0 3.0 15 52
+ 2.97706 2 3 tcp 1040 ------- 1 0.0 3.0 15 52
- 2.97706 2 3 tcp 1040 ------- 1 0.0 3.0 15 52
- 2.98506 0 1 tcp 1040 ------- 1 0.0 3.0 28 71
r 2.99258 2 1 ack 40 ------- 1 4.0 0.1 8 57
+ 2.99258 1 0 ack 40 ------- 1 4.0 0.1 8 57
- 2.99258 1 0 ack 40 ------- 1 4.0 0.1 8 57
r 2.99738 2 4 tcp 1040 ------- 1 0.1 4.0 13 42
+ 2.99738 4 2 ack 40 ------- 1 4.0 0.1 13 72
- 2.99738 4 2 ack 40 ------- 1 4.0 0.1 13 72
r 3.00186 0 1 tcp 1040 ------- 1 0.0 3.0 23 64
+ 3.00186 1 2 tcp 1040 ------- 1 0.0 3.0 23 64
- 3.00186 1 2 tcp 1040 ------- 1 0.0 3.0 19 58
r 3.01002 1 0 ack 40 ------- 1 3.0 0.0 14 51
+ 3.01002 0 1 tcp 1040 ------- 1 0.0 3.0 29 73
- 3.01002 0 1 tcp 1040 ------- 1 0.0 3.0 29 73
+ 3.01002 0 1 tcp 1040 ------- 1 0.0 3.0 30 74
r 3.01578 4 2 ack 40 ------- 1 4.0 0.1 11 66
+ 3.01578 2 1 ack 40 ------- 1 4.0 0.1 11 66
- 3.01578 2 1 ack 40 ------- 1 4.0 0.1 11 66
r 3.0185 0 1 tcp 1040 ------- 1 0.0 3.0 24 65
+ 3.0185 1 2 tcp 1040 ------- 1 0.0 3.0 24 65
r 3.01866 1 2 tcp 1040 ------- 1 0.0 3.0 16 53
+ 3.01866 2 3 tcp 1040 ------- 1 0.0 3.0 16 53
- 3.01866 2 3 tcp 1040 ------- 1 0.0 3.0 16 53
- 3.02666 0 1 tcp 1040 ------- 1 0.0 3.0 30 74
r 3.03418 2 1 ack 40 ------- 1 4.0 0.1 9 60
+ 3.03418 1 0 ack 40 ------- 1 4.0 0.1 9 60
- 3.03418 1 0 ack 40 ------- 1 4.0 0.1 9 60
r 3.03898 2 4 tcp 1040 ------- 1 0.1 4.0 14 43
+ 3.03898 4 2 ack 40 ------- 1 4.0 0.1 14 75
- 3.03898 4 2 ack 40 ------- 1 4.0 0.1 14 75
r 3.04346 0 1 tcp 1040 ------- 1 0.0 3.0 25 67
+ 3.04346 1 2 tcp 1040 ------- 1 0.0 3.0 25 67
- 3.04346 1 2 tcp 1040 ------- 1 0.0 3.0 20 59
r 3.05162 1 0 ack 40 ------- 1 4.0 0.1 7 54
+ 3.05162 0 1 tcp 1040 ------- 1 0.1 4.0 15 76
- 3.05162 0 1 tcp 1040 ------- 1 0.1 4.0 15 76
+ 3.05162 0 1 tcp 1040 ------- 1 0.1 4.0 16 77
r 3.05738 4 2 ack 40 ------- 1 4.0 0.1 12 69
+ 3.05738 2 1 ack 40 ------- 1 4.0 0.1 12 69
- 3.05738 2 1 ack 40 ------- 1 4.0 0.1 12 69
r 3.0601 0 1 tcp 1040 ------- 1 0.0 3.0 26 68
+ 3.0601 1 2 tcp 1040 ------- 1 0.0 3.0 26 68
r 3.06026 1 2 tcp 1040 ------- 1 0.0 3.0 17 55
+ 3.06026 2 3 tcp 1040 ------- 1 0.0 3.0 17 55
- 3.06026 2 3 tcp 1040 ------- 1 0.0 3.0 17 55
- 3.06826 0 1 tcp 1040 ------- 1 0.1 4.0 16 77
r 3.07578 2 1 ack 40 ------- 1 4.0 0.1 10 63
+ 3.07578 1 0 ack 40 ------- 1 4.0 0.1 10 63
- 3.07578 1 0 ack 40 ------- 1 4.0 0.1 10 63
r 3.08506 0 1 tcp 1040 ------- 1 0.0 3.0 27 70
+ 3.08506 1 2 tcp 1040 ------- 1 0.0 3.0 27 70
- 3.08506 1 2 tcp 1040 ------- 1 0.0 3.0 21 61
r 3.09322 1 0 ack 40 ------- 1 4.0 0.1 8 57
+ 3.09322 0 1 tcp 1040 ------- 1 0.1 4.0 17 78
- 3.09322 0 1 tcp 1040 ------- 1 0.1 4.0 17 78
+ 3.09322 0 1 tcp 1040 ------- 1 0.1 4.0 18 79
r 3.09898 4 2 ack 40 ------- 1 4.0 0.1 13 72
+ 3.09898 2 1 ack 40 ------- 1 4.0 0.1 13 72
- 3.09898 2 1 ack 40 ------- 1 4.0 0.1 13 72
r 3.1017 0 1 tcp 1040 ------- 1 0.0 3.0 28 71
+ 3.1017 1 2 tcp 1040 ------- 1 0.0 3.0 28 71
r 3.10186 1 2 tcp 1040 ------- 1 0.0 3.0 18 56
+ 3.10186 2 3 tcp 1040 ------- 1 0.0 3.0 18 56
- 3.10186 2 3 tcp 1040 ------- 1 0.0 3.0 18 56
- 3.10986 0 1 tcp 1040 ------- 1 0.1 4.0 18 79
r 3.11738 2 1 ack 40 ------- 1 4.0 0.1 11 66
+ 3.11738 1 0 ack 40 ------- 1 4.0 0.1 11 66
- 3.11738 1 0 ack 40 ------- 1 4.0 0.1 11 66
r 3.11866 2 3 tcp 1040 ------- 1 0.0 3.0 15 52
+ 3.11866 3 2 ack 40 ------- 1 3.0 0.0 15 80
- 3.11866 3 2 ack 40 ------- 1 3.0 0.0 15 80
r 3.12666 0 1 tcp 1040 ------- 1 0.0 3.0 29 73
+ 3.12666 1 2 tcp 1040 ------- 1 0.0 3.0 29 73
- 3.12666 1 2 tcp 1040 ------- 1 0.0 3.0 22 62
r 3.13482 1 0 ack 40 ------- 1 4.0 0.1 9 60
+ 3.13482 0 1 tcp 1040 ------- 1 0.1 4.0 19 81
- 3.13482 0 1 tcp 1040 ------- 1 0.1 4.0 19 81
+ 3.13482 0 1 tcp 1040 ------- 1 0.1 4.0 20 82
r 3.14058 4 2 ack 40 ------- 1 4.0 0.1 14 75
+ 3.14058 2 1 ack 40 ------- 1 4.0 0.1 14 75
- 3.14058 2 1 ack 40 ------- 1 4.0 0.1 14 75
r 3.1433 0 1 tcp 1040 ------- 1 0.0 3.0 30 74
+ 3.1433 1 2 tcp 1040 ------- 1 0.0 3.0 30 74
r 3.14346 1 2 tcp 1040 ------- 1 0.0 3.0 19 58
+ 3.14346 2 3 tcp 1040 ------- 1 0.0 3.0 19 58
- 3.14346 2 3 tcp 1040 ------- 1 0.0 3.0 19 58
- 3.15146 0 1 tcp 1040 ------- 1 0.1 4.0 20 82
r 3.15898 2 1 ack 40 ------- 1 4.0 0.1 12 69
+ 3.15898 1 0 ack 40 ------- 1 4.0 0.1 12 69
- 3.15898 1 0 ack 40 ------- 1 4.0 0.1 12 69
r 3.16026 2 3 tcp 1040 ------- 1 0.0 3.0 16 53
+ 3.16026 3 2 ack 40 ------- 1 3.0 0.0 16 83
- 3.16026 3 2 ack 40 ------- 1 3.0 0.0 16 83
r 3.16826 0 1 tcp 1040 ------- 1 0.1 4.0 15 76
+ 3.16826 1 2 tcp 1040 ------- 1 0.1 4.0 15 76
- 3.16826 1 2 tcp 1040 ------- 1 0.0 3.0 23 64
r 3.17642 1 0 ack 40 ------- 1 4.0 0.1 10 63
+ 3.17642 0 1 tcp 1040 ------- 1 0.1 4.0 21 84
- 3.17642 0 1 tcp 1040 ------- 1 0.1 4.0 21 84
+ 3.17642 0 1 tcp 1040 ------- 1 0.1 4.0 22 85
r 3.1849 0 1 tcp 1040 ------- 1 0.1 4.0 16 77
+ 3.1849 1 2 tcp 1040 ------- 1 0.1 4.0 16 77
r 3.18506 1 2 tcp 1040 ------- 1 0.0 3.0 20 59
+ 3.18506 2 3 tcp 1040 ------- 1 0.0 3.0 20 59
- 3.18506 2 3 tcp 1040 ------- 1 0.0 3.0 20 59
- 3.19306 0 1 tcp 1040 ------- 1 0.1 4.0 22 85
r 3.20058 2 1 ack 40 ------- 1 4.0 0.1 13 72
+ 3.20058 1 0 ack 40 ------- 1 4.0 0.1 13 72
- 3.20058 1 0 ack 40 ------- 1 4.0 0.1 13 72
r 3.20186 2 3 tcp 1040 ------- 1 0.0 3.0 17 55
+ 3.20186 3 2 ack 40 ------- 1 3.0 0.0 17 86
- 3.20186 3 2 ack 40 ------- 1 3.0 0.0 17 86
r 3.20986 0 1 tcp 1040 ------- 1 0.1 4.0 17 78
+ 3.20986 1 2 tcp 1040 ------- 1 0.1 4.0 17 78
d 3.20986 1 2 tcp 1040 ------- 1 0.1 4.0 17 78
- 3.20986 1 2 tcp 1040 ------- 1 0.0 3.0 24 65
r 3.21802 1 0 ack 40 ------- 1 4.0 0.1 11 66
+ 3.21802 0 1 tcp 1040 ------- 1 0.1 4.0 23 87
- 3.21802 0 1 tcp 1040 ------- 1 0.1 4.0 23 87
+ 3.21802 0 1 tcp 1040 ------- 1 0.1 4.0 24 88
r 3.22026 3 2 ack 40 ------- 1 3.0 0.0 15 80